150
step:0 columns:id,pos dt:1 cell:5.0,5.0,5.0 
1 -0.955249 -2.118605 1.977438
1 -1.267566 1.820112 -1.233186
1 -0.136443 0.198976 -0.697011
1 -1.114032 0.545887 -0.983428
1 0.369513 2.451936 2.129668
1 0.907243 -0.963565 2.077108
1 -0.417299 1.887992 1.915905
1 1.416720 2.404011 0.688102
1 0.056187 1.982925 0.860730
1 0.511881 -2.315099 0.231498
1 2.015769 -1.735112 0.990098
1 -0.413328 -1.722664 -2.199278
1 1.224697 -0.382050 0.867733
1 1.448185 -2.000714 -0.344070
1 -2.134972 2.043654 -0.670738
1 -1.178160 -2.354497 -2.011802
1 -1.376658 1.843902 2.399401
1 -1.319645 1.323134 -0.348441
1 0.060221 -0.537729 2.426618
1 -2.106984 0.930687 -2.445360
1 -2.040910 1.493045 1.610124
1 2.210416 -0.035530 1.046469
1 -2.224366 -1.360066 2.026003
1 -2.340017 2.375593 1.173861
1 -0.812835 -1.066720 2.059892
1 -2.127037 1.317545 -1.566393
1 -2.329012 2.336117 -1.583492
1 -0.888719 1.024352 1.907139
1 2.234551 -1.876874 -1.135272
1 -1.553211 -2.216200 0.166537
1 -0.490021 -2.317647 -0.117803
1 0.519143 2.444032 -0.799096
1 -2.255748 -0.973007 1.048919
1 0.424239 -0.550257 0.135694
1 1.119272 -1.880352 1.453227
1 0.764549 1.641175 -1.451353
1 1.908766 1.456692 0.313456
1 2.396652 1.852166 2.381479
1 1.801288 -0.873071 1.567385
1 -0.328817 -2.069565 -1.144604
1 1.235980 1.139049 2.070800
1 -1.395522 0.978455 0.756699
1 -2.405792 -0.212343 2.303630
1 0.558600 1.347819 -0.491372
1 -1.760651 0.455736 1.640364
1 0.734939 0.175174 1.740776
1 -0.886780 -1.145433 1.096705
1 2.259047 1.243818 -0.681046
1 -0.549979 -0.767360 0.193758
1 1.818788 1.677298 -1.614930
1 2.308607 -2.509834 0.213787
1 -1.601155 -0.571063 1.677932
1 1.358028 0.940411 -1.044376
1 -0.059450 -1.076505 -1.409068
1 2.133397 0.599962 1.908407
1 2.121061 0.651909 -1.878174
1 1.317257 2.015598 -2.383987
1 -1.448223 -2.195936 -0.986198
1 1.426378 -0.197837 2.421475
1 -0.828764 -0.054307 2.089879
1 0.829585 -1.620774 -1.112041
1 -0.940193 -0.569493 -0.861877
1 0.127838 -0.527649 1.266060
1 -0.753253 0.211367 1.086556
1 1.431547 1.923582 -0.416134
1 -2.064079 -1.526352 -1.836641
1 1.960931 -1.097966 -2.232213
1 -1.943984 -1.236770 -0.911602
1 -1.612506 -0.634513 -2.226036
1 0.470224 -2.292018 -1.838535
1 1.346172 0.016459 -1.504005
1 -1.949151 -0.174591 -0.764827
1 0.822046 -0.814228 -1.887081
1 1.457436 -0.583150 -0.127325
1 -2.043610 1.669103 0.300927
1 -2.128822 0.669097 -0.144127
1 -0.581441 -2.177342 1.020424
1 2.491322 -0.523022 -1.626833
1 -1.351660 2.125704 1.301019
1 0.108156 -1.436473 0.776158
1 0.137996 -1.424953 -0.321328
1 -1.614521 -1.123712 0.210622
1 -1.152746 1.040655 -1.954501
1 1.167646 -1.790147 2.495675
1 0.855260 1.324541 0.463587
1 -2.007985 -2.364657 2.054541
1 1.950633 1.525519 1.449445
1 1.795068 -2.441973 1.789375
1 0.544729 0.333820 0.645166
1 -0.024544 -1.649845 1.877114
1 -0.306828 1.860485 -0.739797
1 -1.026506 0.297574 -0.013102
1 1.725769 -1.000816 -1.007858
1 1.995634 -2.210481 -2.201696
1 0.359749 1.537681 -2.456869
1 -0.314963 1.970329 -1.711956
1 2.032660 0.167983 -0.697751
1 1.725124 0.389940 0.225751
1 -0.949491 -1.507321 -0.487045
1 0.185986 -0.063304 -1.676676
1 -0.114703 0.596681 2.475309
1 -0.178123 0.904262 -1.428817
1 0.706609 -0.576686 -0.888917
1 -0.787156 -0.045227 -1.873467
1 -1.852253 0.231835 -1.703964
1 1.431434 0.768796 1.095960
1 -0.945751 1.893286 0.391731
1 2.511835 -0.472284 0.033165
1 0.853093 0.290075 -0.381873
1 -1.668030 -0.089084 0.762117
1 1.397354 -2.447679 -1.393080
1 0.157336 1.154164 1.377720
1 0.982197 0.807535 -1.980389
1 2.301916 -1.467100 -0.053658
1 -1.120594 -1.337129 -1.548581
1 0.984882 1.891355 1.424121
1 1.175571 -1.360617 0.420659
1 -1.593443 -1.861066 1.159905
1 -2.405110 0.886696 0.869229
1 -0.322210 0.963881 0.445331
2 -2.206763 -2.070889 -0.509902
2 1.888474 1.230796 -2.384355
2 1.513053 -1.657973 -1.689712
2 -2.105074 0.607004 -0.922843
2 -1.603468 0.177386 2.370707
2 -1.349916 -1.454686 -2.367666
2 -0.135875 0.115668 0.111078
2 -0.029106 1.790114 0.053628
2 -0.848843 -1.578304 0.375903
2 -0.303910 0.973172 -0.452874
2 -1.549049 -0.522511 -1.419994
2 0.326627 -2.158532 1.324170
2 1.922853 -1.646580 2.063329
2 1.003669 -1.180649 -0.399745
2 -2.123975 -1.759741 0.549912
2 -0.152052 -0.692797 -0.556292
2 0.743833 0.026543 -2.254262
2 2.004594 -0.802815 0.701955
2 -0.664555 1.519499 1.126032
2 0.567490 0.570719 -1.156242
2 -0.479225 1.384749 -2.376557
2 1.373173 1.055811 -0.201754
2 -0.459393 2.475100 -2.446120
2 0.811100 -1.092351 1.198667
2 2.060092 2.262746 -0.833572
2 -0.646061 -0.906388 -2.124533
2 1.600217 -0.008984 1.605817
2 -1.232678 2.183748 -0.363662
2 0.376724 -1.403447 -2.245456
2 -0.113557 0.392112 1.673934
150
step:1 columns:id,pos dt:1 cell:5.0,5.0,5.0 
1 -0.839482 -2.108712 1.888931
1 -1.246241 2.014208 -1.226484
1 -0.022591 0.256974 -0.600428
1 -1.085763 0.596877 -1.033049
1 0.209853 -2.375673 2.113791
1 0.909633 -1.013381 2.028672
1 -0.362071 1.813921 1.815349
1 1.333011 2.365808 0.783406
1 0.106328 1.842831 0.938575
1 0.487648 -2.287874 0.259692
1 1.931517 -1.659258 1.038700
1 -0.307147 -1.823503 -2.198367
1 1.229545 -0.262778 0.852501
1 1.456429 -2.090326 -0.431376
1 -2.072254 2.224726 -0.632713
1 -1.327052 -2.067442 -2.166608
1 -1.209044 1.848322 2.384549
1 -1.422760 1.361018 -0.387605
1 -0.115715 -0.501619 2.297504
1 -1.920404 1.047109 -2.412303
1 -1.978090 1.548150 1.653897
1 2.255793 -0.093887 1.008282
1 -2.443615 -1.582002 2.049965
1 -2.423106 2.405958 1.169492
1 -0.902849 -1.139508 2.293328
1 -1.979064 1.318710 -1.408406
1 -2.066293 2.326409 -1.715156
1 -0.945441 0.934084 1.860826
1 2.214752 -2.051182 -1.143473
1 -1.528083 -2.025592 0.057994
1 -0.486329 -2.242875 -0.088255
1 0.449102 2.303281 -0.714823
1 -2.174853 -1.047581 0.902963
1 0.362956 -0.511074 0.170322
1 0.914258 -1.805543 1.366501
1 0.766039 1.535954 -1.437956
1 1.957385 1.576356 0.309607
1 2.478321 1.916907 -2.496148
1 1.979961 -0.717100 1.774846
1 -0.432245 -2.180145 -1.207326
1 1.116660 0.920882 2.083157
1 -1.459925 1.037912 0.869476
1 -2.398383 0.027311 2.365849
1 0.475457 1.160888 -0.479665
1 -1.899828 0.426036 1.564887
1 0.825077 -0.001681 1.804358
1 -0.918712 -1.051467 1.040827
1 2.314850 1.199312 -0.603923
1 -0.667090 -0.512655 0.214540
1 2.001487 1.561104 -1.523049
1 2.233700 -2.461775 0.137597
1 -1.848286 -0.759186 1.755425
1 1.396223 0.775153 -0.959517
1 -0.066454 -1.166616 -1.379739
1 2.112178 0.892645 2.305897
1 2.047854 0.552344 -1.776969
1 1.415736 1.865262 -2.425281
1 -1.457090 -2.075816 -1.063036
1 1.560663 -0.037255 -2.461444
1 -0.926121 -0.196414 1.826743
1 0.913602 -1.753616 -1.259639
1 -0.749717 -0.425657 -1.088402
1 -0.017606 -0.493549 1.179834
1 -0.624922 0.379702 1.067122
1 1.348005 1.801920 -0.502905
1 -2.162059 -1.586349 -1.723850
1 1.838607 -1.135699 -2.291280
1 -2.052463 -1.068380 -0.847268
1 -1.810112 -0.770977 -2.285534
1 0.445507 2.429570 -1.874281
1 1.351461 -0.195424 -1.344457
1 -1.633661 -0.127926 -0.566601
1 0.914333 -0.966688 -1.882420
1 1.560172 -0.477565 -0.308903
1 -1.989287 1.821247 0.379437
1 -2.098880 0.598040 0.124885
1 -0.674294 -2.053937 0.903814
1 2.422649 -0.489953 -1.642023
1 -1.289582 2.192064 1.122266
1 -0.013716 -1.348388 0.504364
1 0.189306 -1.673430 -0.489234
1 -1.606221 -0.973906 0.073304
1 -1.093095 1.145374 -1.936350
1 0.976881 -1.880779 -2.392461
1 0.913895 1.485516 0.424480
1 -1.924614 -2.421540 2.037647
1 1.941338 1.577348 1.585794
1 1.819619 -2.364236 1.798377
1 0.453937 0.386920 0.837263
1 -0.037960 -1.419668 1.688677
1 -0.442460 1.828683 -0.627011
1 -0.982444 0.541441 0.002930
1 1.797422 -1.075470 -1.077232
1 2.024793 -2.231823 -2.187957
1 0.360964 1.579179 2.508442
1 -0.379561 1.816506 -1.725104
1 2.406878 0.175349 -0.811394
1 1.903577 0.471793 0.167276
1 -0.885123 -1.372483 -0.609402
1 0.188662 -0.159316 -1.586212
1 0.065246 0.536160 2.500000
1 -0.107921 0.813525 -1.409228
1 0.616953 -0.708257 -0.854542
1 -0.797362 0.162547 -2.076733
1 -1.933321 0.317091 -1.656061
1 1.459516 0.794751 1.144702
1 -0.778148 1.802321 0.339388
1 2.499774 -0.454436 0.063000
1 0.912773 0.310528 -0.128966
1 -1.641466 -0.171879 0.845647
1 1.415060 2.323704 -1.357618
1 0.297297 1.054662 1.567164
1 0.868094 0.553254 -1.948107
1 2.169214 -1.458426 -0.024822
1 -1.117764 -1.242745 -1.654987
1 0.819999 2.032079 1.667968
1 1.150557 -1.302496 0.420896
1 -1.685350 -1.843209 1.234017
1 2.450673 0.940552 0.951230
1 -0.147616 1.039148 0.294950
2 -2.225220 -1.869896 -0.527524
2 1.549267 1.110289 -2.112597
2 1.583216 -1.649797 -1.708971
2 -1.873834 0.701416 -0.697903
2 -1.469936 0.293203 2.368242
2 -1.525391 -1.575937 2.007788
2 -0.261490 0.192128 0.236191
2 0.179350 1.894683 -0.023353
2 -0.822421 -1.418411 0.276011
2 -0.468360 0.951472 -0.549899
2 -1.539777 -0.496924 -1.509067
2 0.089381 -2.332382 1.157027
2 1.628449 -1.473324 1.901086
2 1.024643 -1.281224 -0.494925
2 -2.305995 -1.905085 0.614370
2 -0.187345 -0.808399 -0.490228
2 0.716536 -0.194333 -2.355682
2 1.907043 -0.852607 0.798678
2 -0.467201 1.244448 1.200755
2 0.703264 0.322606 -1.071351
2 -0.426518 1.223222 2.498003
2 1.341053 1.047195 -0.127664
2 -0.318031 2.231867 -2.435708
2 0.734153 -0.975010 1.171449
2 2.088189 2.188161 -0.861933
2 -0.559151 -0.737480 -1.974291
2 1.836415 0.157797 1.753581
2 -1.197274 2.247295 -0.330403
2 0.235862 -1.201088 -2.442911
2 -0.026445 0.248537 1.656867
150
step:2 columns:id,pos dt:1 cell:5.0,5.0,5.0 
1 -1.047048 -2.224932 1.934920
1 -1.177261 1.912549 -1.352247
1 -0.036240 0.155537 -0.530627
1 -1.050686 0.484821 -1.107990
1 0.324604 -2.342859 2.176012
1 1.097944 -0.729528 2.093283
1 -0.400637 1.937364 1.851373
1 1.460511 -2.494104 0.757201
1 -0.064969 1.946392 0.845715
1 0.543325 -2.337943 0.449632
1 1.938175 -1.572499 1.316943
1 -0.206487 -1.656288 -2.239099
1 1.063725 -0.532973 1.099573
1 1.338497 -2.015617 -0.276924
1 -2.059497 2.046611 -0.885411
1 -1.179053 -2.321844 -2.008636
1 -1.282320 1.804949 2.331965
1 -1.294816 1.216844 -0.470377
1 -0.036769 -0.578436 2.185914
1 -2.024032 1.076122 -2.452029
1 -2.131621 1.531501 1.617709
1 2.152720 -0.015205 0.919902
1 2.442019 -1.547498 2.259676
1 2.455757 2.383918 1.015118
1 -0.944005 -1.096849 2.264730
1 -1.982240 1.160854 -1.376446
1 -2.032033 2.086809 -1.967890
1 -1.115338 1.020479 1.776981
1 2.229309 -2.018845 -0.934010
1 -1.644766 -2.268381 0.268902
1 -0.360927 -2.291767 -0.137558
1 0.465900 2.449059 -0.760069
1 -2.285833 -0.932338 0.844990
1 0.375528 -0.653969 0.175722
1 0.966860 -1.730004 1.506333
1 0.762198 1.616289 -1.515272
1 1.958904 1.536151 0.325887
1 2.135365 1.668031 2.411236
1 2.091618 -0.688122 1.749631
1 -0.504401 -2.324939 -1.148216
1 1.311761 0.989376 2.104191
1 -1.335454 1.145425 0.760181
1 -2.311411 -0.059301 2.375293
1 0.455846 1.164966 -0.401481
1 -1.900190 0.352401 1.488603
1 0.695836 0.166336 1.874930
1 -0.911763 -1.047565 1.162346
1 2.339221 1.149526 -0.581373
1 -0.672867 -0.557503 0.205913
1 1.967456 1.639108 -1.535954
1 2.227625 -2.441012 0.000138
1 -1.786348 -0.708471 1.777007
1 1.342926 1.036815 -1.012488
1 0.058732 -1.198065 -1.303853
1 2.153212 0.645156 1.782934
1 2.223926 0.705293 -1.937441
1 1.205657 1.983303 -2.379472
1 -1.443290 -1.946831 -0.953625
1 1.593618 0.080048 2.475486
1 -0.949195 -0.078023 1.862666
1 1.130186 -1.497091 -1.171056
1 -0.686080 -0.442976 -1.131174
1 -0.043645 -0.461444 1.166901
1 -0.676477 0.427531 1.046514
1 1.246380 1.983517 -0.304542
1 -2.077104 -1.732838 -1.846662
1 1.869375 -0.886341 -2.194091
1 -1.934428 -1.053481 -1.050866
1 -1.903990 -0.768636 -2.092467
1 0.433725 -2.237906 -1.700760
1 1.240206 -0.235834 -1.602181
1 -1.512148 -0.205571 -0.492552
1 0.750927 -0.982762 -2.000427
1 1.517921 -0.510217 0.082959
1 -1.981882 1.734556 0.211744
1 -2.003118 0.564304 -0.049998
1 -0.647183 -2.097195 0.865471
1 2.464234 -0.304508 -1.498726
1 -1.240528 2.085295 1.187523
1 0.075667 -1.480799 0.674775
1 0.398472 -1.530273 -0.409640
1 -1.677440 -1.103979 0.069215
1 -1.052496 0.968726 -2.021756
1 1.276851 -1.837940 -2.264731
1 0.898461 1.549650 0.576202
1 -2.084116 -2.494100 2.058520
1 1.777747 1.662292 1.428389
1 1.895335 -2.397338 2.005977
1 0.607471 0.412591 0.643125
1 -0.181196 -1.634531 1.642126
1 -0.308434 1.732068 -0.756853
1 -0.945820 0.454270 -0.006890
1 1.965516 -0.965804 -0.847041
1 2.126443 -2.363785 -1.980905
1 0.411820 1.422402 2.411277
1 -0.301169 1.828241 -1.928365
1 1.839625 0.102330 -0.825829
1 1.808247 0.556341 0.157950
1 -0.717028 -1.445473 -0.585018
1 0.126249 -0.120085 -1.642205
1 -0.106575 0.503421 2.507057
1 -0.098210 0.866151 -1.408284
1 0.785578 -0.579491 -0.799331
1 -0.864923 -0.158880 -2.073438
1 -1.789854 0.258484 -1.800451
1 1.478876 0.734075 1.060333
1 -0.891005 1.906246 0.231569
1 2.472095 -0.289572 -0.153556
1 0.914600 0.296881 -0.303404
1 -1.574473 -0.227528 0.715233
1 1.411412 2.440594 -1.234039
1 0.246481 1.107288 1.333185
1 0.769027 0.635664 -2.037036
1 2.048700 -1.376011 0.101593
1 -1.023605 -1.292187 -1.752985
1 0.822448 2.024080 1.488169
1 1.087642 -1.357991 0.571222
1 -1.821788 -1.711266 1.446813
1 -2.382477 0.870482 0.855957
1 -0.228647 1.057538 0.355842
2 -2.122605 -1.981832 -0.337022
2 1.496105 1.158654 -2.070444
2 1.911502 -1.583983 -1.664257
2 -2.423822 0.457570 -1.057511
2 -1.563528 0.278914 2.342092
2 -1.630040 -1.552010 2.293448
2 -0.115770 0.064405 0.405766
2 0.175489 1.894480 -0.040744
2 -0.684969 -1.483477 0.263960
2 -0.444551 0.859862 -0.569605
2 -1.440569 -0.503625 -1.431821
2 0.334094 -2.200527 1.253603
2 1.605767 -1.390981 2.089250
2 1.200419 -1.125265 -0.330100
2 -2.355549 -1.824613 0.692966
2 -0.095433 -0.772780 -0.555658
2 0.667289 -0.213181 -2.358164
2 1.794361 -0.891977 0.834800
2 -0.604061 1.399134 1.141140
2 0.743013 0.399931 -1.147939
2 -0.469725 1.323448 2.424288
2 1.295842 1.151875 -0.205172
2 -0.450279 2.499551 -2.374436
2 0.440031 -1.049571 1.490177
2 2.053113 2.089027 -0.712060
2 -0.241493 -0.837904 -2.006791
2 1.517333 -0.018561 1.651164
2 -1.128379 2.301726 -0.541252
2 0.717956 -1.438272 2.307533
2 -0.158195 0.260195 1.708730
150
step:3 columns:id,pos dt:1 cell:5.0,5.0,5.0 
1 -1.055293 -2.185087 1.947129
1 -1.115408 1.756368 -1.030592
1 -0.134912 0.259563 -0.575648
1 -1.006259 0.620029 -1.093157
1 0.517575 -2.377199 2.169834
1 0.979695 -0.783258 1.975447
1 -0.299424 2.105320 1.682556
1 1.504145 -2.426968 0.643567
1 -0.018800 1.992221 0.696363
1 0.543483 -2.260653 0.304807
1 1.931728 -1.588851 1.196805
1 -0.248047 -1.720750 -2.263317
1 1.064351 -0.317929 0.988003
1 1.410393 -2.006487 -0.390182
1 -2.072343 2.274722 -0.964437
1 -1.134727 -2.453565 -1.910118
1 -1.118284 1.802790 2.262466
1 -1.701004 1.078037 -0.333571
1 -0.094604 -0.543867 2.226823
1 -2.008633 0.950116 -2.493401
1 -2.100881 1.610147 1.732506
1 2.142163 -0.041757 0.997401
1 -2.356146 -1.577029 2.112809
1 -2.343432 2.501067 1.155017
1 -0.988387 -1.156329 2.322672
1 -2.106838 1.068943 -1.327157
1 -1.914854 1.870298 -1.910496
1 -1.022021 0.866948 1.809114
1 2.252143 -1.794846 -1.006938
1 -1.605712 -2.349451 0.406837
1 -0.504411 -2.307941 -0.034526
1 0.493582 2.482056 -0.748006
1 -2.337008 -0.908098 0.759850
1 0.445870 -0.579818 0.168460
1 0.952868 -1.775808 1.506516
1 0.744099 1.715036 -1.486924
1 1.859321 1.603486 0.352774
1 2.158615 1.668718 2.416288
1 2.121995 -0.731458 1.708294
1 -0.410425 -2.250429 -1.198948
1 1.270019 1.187470 2.046612
1 -1.520741 1.103954 0.944114
1 -2.419096 -0.121197 2.476014
1 0.578893 1.351706 -0.574051
1 -1.879986 0.224559 1.426439
1 0.785460 0.265929 1.717439
1 -0.864523 -1.119067 1.130288
1 2.292563 1.284871 -0.562947
1 -0.577358 -0.715316 0.203148
1 2.038935 1.752541 -1.468507
1 2.376232 2.485460 0.116573
1 -1.779902 -0.717516 1.827793
1 1.350021 0.934898 -1.200772
1 -0.035550 -1.252231 -1.393075
1 2.141198 0.663714 1.870994
1 2.052194 0.738988 -2.035485
1 1.227865 2.086540 -2.335403
1 -1.344433 -2.128121 -0.716944
1 1.501302 -0.022636 2.443066
1 -0.919301 -0.198723 1.654393
1 0.868832 -1.539610 -1.141024
1 -0.755938 -0.468799 -1.221106
1 -0.065250 -0.446441 1.114560
1 -0.576660 0.457785 0.949353
1 1.377835 2.004666 -0.580080
1 -1.973279 -1.966145 -1.669271
1 1.943099 -0.943353 -2.255300
1 -1.862776 -1.203433 -0.810518
1 -1.837576 -0.919084 -2.110721
1 0.403197 -2.385435 -1.800807
1 1.425022 -0.099428 -1.471062
1 -1.504549 -0.301553 -0.426068
1 0.879135 -0.769384 -2.010032
1 1.526340 -0.516765 0.093671
1 -2.088732 1.684949 0.357805
1 -2.047553 0.299669 0.271658
1 -0.693829 -2.184412 0.934165
1 2.457260 -0.631215 -1.439433
1 -1.326977 2.060011 1.272807
1 0.066888 -1.510908 0.790162
1 0.157361 -1.480728 -0.380508
1 -1.591833 -1.312979 0.178600
1 -1.055937 1.044491 -2.096500
1 1.165894 -1.698866 -2.350969
1 0.827514 1.357558 0.466967
1 -2.124176 2.482008 2.225285
1 1.961863 1.824909 1.325433
1 1.900350 -2.335551 1.881429
1 0.453670 0.426333 0.779559
1 -0.129959 -1.557932 1.743077
1 -0.241369 1.827185 -0.442055
1 -0.939701 0.411170 0.027685
1 1.713331 -0.859297 -0.851891
1 2.071928 -2.254299 -2.104703
1 0.321007 1.464829 -2.426451
1 -0.430499 1.831808 -1.794440
1 2.365674 0.268182 -0.953820
1 1.945552 0.540792 0.056457
1 -0.783668 -1.314714 -0.600872
1 0.132686 -0.217969 -1.725464
1 -0.060332 0.482770 2.439153
1 0.015917 1.004008 -1.360213
1 0.678670 -0.474111 -0.801086
1 -0.833450 -0.082292 -2.190498
1 -1.808445 0.156407 -1.757569
1 1.409626 0.753621 1.090858
1 -0.980565 1.761382 0.308626
1 2.498315 -0.513335 -0.282424
1 0.868272 0.435127 -0.111793
1 -1.390122 -0.381190 0.760505
1 1.324081 -2.426196 -1.418107
1 0.210154 1.231830 1.509855
1 0.825066 0.608515 -2.090579
1 2.094224 -1.473619 -0.031304
1 -1.007842 -1.375760 -1.622313
1 0.967686 2.029757 1.377841
1 1.101277 -1.400180 0.518470
1 -1.721331 -1.677137 1.256083
1 2.495823 0.976229 0.983937
1 -0.133832 0.987617 0.108738
2 -2.112357 -1.934779 -0.294333
2 1.308956 1.328868 -1.989451
2 1.611612 -1.416984 -1.630230
2 -1.788363 0.347232 -0.931630
2 -1.515190 0.155839 2.231034
2 -1.508292 -1.806395 -2.317807
2 -0.201297 -0.007304 0.239758
2 0.499159 1.975107 -0.044792
2 -0.759205 -1.596076 0.323604
2 -0.852603 1.190318 -0.408799
2 -1.639081 -0.604789 -1.396539
2 0.264883 -2.251642 1.230168
2 1.683363 -1.380974 2.022367
2 1.027519 -1.157843 -0.351707
2 -2.281626 -1.828689 0.599896
2 -0.205636 -0.639797 -0.591787
2 0.560974 -0.086155 2.507963
2 1.799511 -0.805509 0.817732
2 -0.587883 1.446985 1.112085
2 0.635025 0.483938 -1.018639
2 -0.377472 1.289659 2.177103
2 1.396710 1.160432 -0.165019
2 -0.260503 2.314410 -2.460674
2 0.603109 -1.060839 1.264230
2 2.041956 2.419461 -0.746478
2 -0.398974 -0.803200 -2.051531
2 1.548766 0.021258 1.591692
2 -1.585473 2.092530 -0.315979
2 0.494078 -1.352109 2.291467
2 -0.214491 0.273166 1.672804
150
step:4 columns:id,pos dt:1 cell:5.0,5.0,5.0 
1 -0.897916 -2.185650 1.926809
1 -1.199599 2.127084 -1.256224
1 0.042364 0.079957 -0.601589
1 -0.944641 0.437356 -0.998524
1 0.139248 -2.425023 2.107054
1 0.890076 -0.847285 1.970316
1 -0.545433 1.855987 1.779203
1 1.358429 2.426517 0.785028
1 0.028608 2.021399 0.844424
1 0.563935 -2.276730 0.342615
1 1.957188 -1.721839 1.091381
1 -0.009531 -1.488367 -2.224552
1 1.091224 -0.378240 1.029045
1 1.415209 -2.089954 -0.304042
1 -2.128151 2.194102 -0.791460
1 -1.167046 -2.152667 -2.058442
1 -1.342088 1.833884 -2.382696
1 -1.401691 1.325776 -0.628066
1 -0.085406 -0.559400 2.329187
1 -1.938431 1.016137 -2.381768
1 -2.084930 1.405380 1.672263
1 2.259454 -0.102766 0.862588
1 2.467802 -1.666877 1.999571
1 -2.453291 2.192998 1.100877
1 -1.001314 -1.251151 2.285699
1 -1.961794 1.399441 -1.455908
1 -2.051012 2.458837 -1.799371
1 -1.017228 0.966037 1.775876
1 2.299453 -1.973261 -1.093245
1 -1.540240 -2.341974 0.275292
1 -0.393562 -2.342003 -0.051205
1 0.450399 -2.470639 -0.807319
1 -2.269357 -1.026463 0.877261
1 0.498760 -0.640201 0.152835
1 0.990985 -1.870166 1.514444
1 0.715683 1.682559 -1.410090
1 1.937664 1.652947 0.341687
1 2.225027 1.605407 2.442904
1 2.071902 -0.736357 1.625183
1 -0.448005 -2.144263 -1.277592
1 1.180394 0.929888 2.009676
1 -1.432008 1.003242 0.737406
1 -2.394453 0.082071 2.384678
1 0.578115 1.206662 -0.492327
1 -1.877519 0.342585 1.600108
1 0.582943 0.124653 1.744948
1 -1.079635 -1.079532 1.085525
1 -2.474023 1.219263 -0.520135
1 -0.766835 -0.583584 0.287917
1 2.100839 1.709982 -1.561084
1 2.383967 2.511716 0.097755
1 -1.860619 -0.741585 1.756667
1 1.549793 1.028932 -1.045049
1 0.077355 -1.191755 -1.237343
1 2.135034 0.656405 1.672874
1 2.070978 0.663760 -1.945349
1 1.240640 2.106687 -2.352837
1 -1.574347 -2.035403 -0.974119
1 1.479320 0.025210 2.504676
1 -0.955761 -0.232913 1.741958
1 1.079370 -1.569511 -1.222612
1 -0.742391 -0.575853 -1.063015
1 -0.005692 -0.514241 1.072077
1 -0.601542 0.383295 0.982026
1 1.176399 1.943614 -0.357452
1 -2.237922 -1.518279 -2.011525
1 1.834974 -0.900075 -2.419867
1 -2.053256 -1.132377 -0.971544
1 -1.648444 -0.666373 -2.265766
1 0.412568 -2.380294 -1.865391
1 1.432012 0.077778 -1.366233
1 -1.587945 -0.285179 -0.597912
1 0.871922 -0.815475 -1.857906
1 1.567018 -0.468729 0.010740
1 -1.974052 1.765757 0.268652
1 -1.938572 0.481436 0.019123
1 -0.778408 -2.252964 0.908455
1 -2.449262 -0.495081 -1.620706
1 -1.356743 1.967850 1.217440
1 -0.188845 -1.499088 0.543351
1 0.506920 -1.528290 -0.338171
1 -1.608799 -1.130959 0.086414
1 -1.087746 0.977674 -1.832383
1 1.114602 -1.719892 -2.299052
1 0.824355 1.545091 0.558742
1 -2.086071 2.395667 2.150895
1 1.812429 1.547693 1.425493
1 1.840614 -2.475964 1.851626
1 0.469798 0.489113 0.628051
1 -0.195838 -1.463899 1.625490
1 -0.352848 1.749138 -0.658877
1 -0.911538 0.425966 0.009930
1 1.838194 -0.944644 -0.941963
1 1.984770 -2.305098 -2.020694
1 0.240522 1.607123 -2.445882
1 -0.358962 1.927166 -1.697249
1 2.361778 0.294080 -0.842159
1 1.950898 0.557438 0.050128
1 -0.712152 -1.408978 -0.496279
1 0.141549 -0.154229 -1.577049
1 -0.170881 0.675823 2.441455
1 -0.065037 0.930555 -1.307194
1 0.818237 -0.594015 -0.796877
1 -0.746880 -0.073981 -2.008815
1 -1.841107 0.332026 -1.579744
1 1.451861 0.694428 0.982440
1 -0.937058 1.872236 0.255477
1 -2.473836 -0.527539 -0.062388
1 1.022337 0.309893 -0.215588
1 -1.590032 -0.211716 0.789919
1 1.403688 2.415167 -1.234103
1 0.197806 1.152510 1.438313
1 0.738131 0.698182 -1.948350
1 2.236389 -1.483402 -0.023315
1 -1.250123 -1.295689 -1.549381
1 0.910063 1.947670 1.703980
1 1.071682 -1.363914 0.620639
1 -1.703958 -1.902655 1.344419
1 -2.446235 1.003615 0.812064
1 -0.181918 1.142103 0.221844
2 -2.017582 -1.877885 -0.275200
2 1.461069 1.187323 -2.226609
2 1.907565 -1.551797 -1.729448
2 -1.944729 0.725995 -0.813921
2 -1.489314 0.169857 2.382404
2 -1.700408 -1.851857 2.256153
2 -0.136946 0.029366 0.290124
2 0.300805 1.923024 -0.064982
2 -0.977104 -1.578200 0.316003
2 -0.366646 0.878692 -0.556213
2 -1.488986 -0.383432 -1.480106
2 0.216168 -2.159830 1.229126
2 1.610326 -1.430216 1.989207
2 1.362139 -1.281590 -0.302991
2 -2.256099 -1.870268 0.669395
2 -0.195845 -0.734735 -0.382627
2 0.634771 -0.091331 -2.270830
2 1.864097 -0.858036 0.725665
2 -0.578636 1.422621 1.060866
2 0.738441 0.541312 -1.062078
2 -0.591912 1.428834 2.430304
2 1.291957 1.122585 0.055819
2 -0.502103 2.346811 -2.382055
2 0.530811 -1.161314 1.230384
2 2.033150 1.957814 -0.676898
2 -0.504718 -0.911750 -1.819996
2 1.486370 -0.011080 1.630950
2 -1.132248 2.426075 -0.472461
2 0.542532 -1.606092 2.102007
2 -0.238136 0.162314 1.723751
150
step:5 columns:id,pos dt:1 cell:5.0,5.0,5.0 
1 -0.935377 -2.147414 1.967092
1 -1.154887 1.828652 -1.391009
1 0.053487 0.095694 -0.673995
1 -0.952367 0.418291 -1.056444
1 0.302440 -2.371661 2.047829
1 0.996623 -0.741186 1.868244
1 -0.511646 1.967398 1.835689
1 1.560785 -2.382032 0.860817
1 -0.031019 1.983273 0.862313
1 0.584984 -2.288653 0.376301
1 2.167139 -1.595937 1.270122
1 -0.254946 -1.749752 -2.298519
1 1.013602 -0.248065 0.961632
1 1.394572 -1.885690 -0.407424
1 -2.047171 1.987950 -0.784530
1 -1.112063 -2.308483 -2.000450
1 -1.305740 1.795546 2.468678
1 -1.334808 1.329741 -0.368672
1 -0.065665 -0.503478 2.292808
1 -1.996259 1.040849 -2.276648
1 -2.046236 1.423424 1.717642
1 2.125162 -0.095931 1.094955
1 -2.306069 -1.531135 2.169746
1 -2.449728 2.353105 1.081993
1 -0.912302 -1.116264 2.226080
1 -1.946184 1.055891 -1.185561
1 -2.071845 2.238502 -1.838707
1 -0.989235 1.015515 1.747873
1 2.348059 -2.094794 -1.055351
1 -1.619380 -2.276899 0.299451
1 -0.390156 -2.338078 -0.003766
1 0.515849 -2.492938 -0.828572
1 -2.190736 -0.987540 0.806390
1 0.477052 -0.485611 0.089494
1 0.973569 -1.690551 1.557973
1 0.707002 1.650322 -1.434135
1 1.849292 1.668105 0.410887
1 2.176587 1.760822 -2.496999
1 2.084198 -0.753552 1.825163
1 -0.489649 -2.331427 -1.226493
1 1.188062 1.160348 2.063749
1 -1.479495 0.969310 0.795153
1 -2.476521 -0.054383 -2.520053
1 0.500070 1.033999 -0.448901
1 -1.946433 0.354732 1.673985
1 0.576711 0.313465 1.690169
1 -0.984909 -1.132479 1.086151
1 2.175903 1.245423 -0.533677
1 -0.697498 -0.621847 0.095975
1 2.176546 1.634395 -1.487186
1 2.235854 2.458007 -0.029923
1 -1.895502 -0.706406 1.711431
1 1.356730 0.984807 -1.110825
1 -0.003768 -1.480025 -1.357135
1 2.109615 0.712114 1.965508
1 1.977553 0.614836 -1.927126
1 1.148129 2.029319 -2.402786
1 -1.478244 -2.125155 -0.952855
1 1.555071 -0.090712 2.411558
1 -0.979861 -0.126246 1.752940
1 1.101979 -1.556103 -1.269898
1 -0.630674 -0.516199 -1.045348
1 -0.083109 -0.464575 1.250664
1 -0.528385 0.491253 0.948020
1 1.300554 1.931925 -0.493241
1 -2.027814 -1.606311 -1.822810
1 1.792366 -1.074000 -2.150881
1 -2.147712 -1.174946 -0.827588
1 -1.733418 -0.754937 -2.268960
1 0.449114 -2.426121 -1.859582
1 1.336096 -0.064363 -1.463279
1 -1.497929 -0.375457 -0.534867
1 0.592494 -0.928675 -2.045930
1 1.655762 -0.537344 0.231950
1 -2.097199 1.761879 0.260080
1 -2.100845 0.595405 -0.169672
1 -0.604985 -2.141780 0.990985
1 2.450706 -0.436729 -1.558211
1 -1.452147 2.067141 1.179299
1 -0.024490 -1.280190 0.606726
1 0.359431 -1.545809 -0.361190
1 -1.596134 -1.209040 0.084730
1 -1.023768 0.914035 -2.009168
1 1.141751 -1.840834 -2.316618
1 0.854565 1.500300 0.428286
1 -2.095040 2.454421 2.120538
1 1.918744 1.653760 1.431732
1 1.679346 -2.361760 1.907575
1 0.503894 0.550676 0.610750
1 -0.131092 -1.451604 1.693085
1 -0.237261 1.814038 -0.719188
1 -0.975325 0.418628 -0.033631
1 1.812086 -0.825745 -0.775031
1 2.061358 -2.178138 -2.167668
1 0.286152 1.634660 2.449379
1 -0.282781 1.777242 -1.810969
1 2.122348 0.180883 -0.825357
1 1.839379 0.540588 0.155893
1 -0.734740 -1.441646 -0.512298
1 0.141938 -0.106795 -1.732660
1 -0.182955 0.652412 -2.477528
1 -0.046080 0.896642 -1.377806
1 0.612877 -0.688450 -1.009244
1 -0.853269 -0.125056 -2.104922
1 -1.799361 0.192856 -1.766677
1 1.381376 0.883098 1.076642
1 -0.997492 1.962048 0.318744
1 -2.407199 -0.425423 -0.078569
1 1.102164 0.176310 -0.411519
1 -1.586493 -0.136793 0.632931
1 1.456447 2.370267 -1.388369
1 0.124177 1.165948 1.432763
1 0.817617 0.792917 -2.024006
1 2.246111 -1.537545 0.072770
1 -1.030885 -1.277416 -1.689647
1 1.005286 2.018071 1.458169
1 1.190910 -1.374635 0.525235
1 -1.655203 -1.893039 1.309488
1 2.474166 0.901542 0.964268
1 -0.227930 1.227690 0.204599
2 -2.058119 -1.982603 -0.348993
2 1.374474 1.356401 -1.850515
2 2.198923 -1.250265 -1.488368
2 -2.062332 0.066433 -0.870588
2 -1.552887 0.072858 2.405783
2 -1.519811 -1.695760 2.448452
2 -0.186163 0.136510 0.199190
2 0.311325 1.995536 0.021652
2 -0.862067 -1.659401 0.347122
2 -0.477211 0.850293 -0.579779
2 -1.600417 -0.591331 -1.412331
2 0.317862 -2.138056 1.193094
2 1.846763 -1.555355 2.171044
2 1.142200 -0.949397 -0.316724
2 -2.285219 -1.849334 0.640031
2 -0.084480 -0.827875 -0.479246
2 0.683344 -0.192461 -2.421738
2 1.664571 -0.960525 1.052537
2 -0.673550 1.468746 1.140200
2 0.593240 0.490022 -1.200011
2 -0.559180 1.383125 2.486429
2 1.289382 1.061908 -0.215225
2 -0.317819 2.365140 -2.402245
2 0.559974 -1.029343 1.153330
2 2.114402 2.094773 -0.818455
2 -0.342328 -0.888557 -2.001038
2 1.421460 0.191250 1.642218
2 -1.041523 2.218465 -0.534765
2 0.461311 -1.345790 2.265382
2 -0.278041 0.377627 1.747417
150
step:6 columns:id,pos dt:1 cell:5.0,5.0,5.0 
1 -0.797111 -2.166809 2.043092
1 -1.349162 1.776536 -1.334605
1 -0.052284 0.230999 -0.480487
1 -1.069316 0.565787 -1.098935
1 0.383427 -2.227415 2.090665
1 0.950107 -0.753543 1.886006
1 -0.375685 1.945665 1.715444
1 1.471480 -2.477677 0.911552
1 -0.051511 1.988904 0.698784
1 0.577445 -2.239120 0.473621
1 2.159704 -1.698918 1.380477
1 -0.219827 -1.450461 -2.285218
1 1.060055 -0.256422 1.030478
1 1.267639 -1.867115 -0.492228
1 -2.045233 2.110448 -0.586762
1 -1.179201 -2.354981 -2.043706
1 -1.358822 1.760789 2.484429
1 -1.445298 1.193771 -0.432881
1 -0.071058 -0.544524 2.172213
1 -1.955926 0.845618 2.516151
1 -2.087559 1.384868 1.659754
1 2.478837 -0.150179 0.947491
1 -2.334344 -1.418535 2.211043
1 2.503204 2.252993 1.199496
1 -1.018586 -1.040503 2.091017
1 -2.100284 1.034844 -1.454871
1 -2.178878 2.243433 -1.739495
1 -1.050333 1.032666 1.715001
1 2.381310 -1.950622 -1.031251
1 -1.523502 -2.209275 0.116474
1 -0.392147 -2.240721 -0.164189
1 0.496640 2.450407 -0.902047
1 -2.244213 -1.115842 0.763497
1 0.618007 -0.765236 0.228476
1 0.840420 -1.742004 1.330865
1 0.856916 1.618026 -1.393017
1 1.856596 1.660349 0.482201
1 2.219298 1.591059 -2.303585
1 2.082618 -0.769908 1.719964
1 -0.472604 -2.378349 -1.192702
1 1.147906 1.104951 2.257092
1 -1.523665 0.947593 0.859920
1 -2.457603 -0.180726 2.385203
1 0.555118 1.169043 -0.491624
1 -1.813713 0.346180 1.650787
1 0.550893 0.330628 1.852244
1 -1.008484 -1.151781 1.017984
1 2.345379 1.268860 -0.454145
1 -0.642495 -0.682289 0.111762
1 1.957644 1.665782 -1.333118
1 2.133643 -2.463348 -0.002405
1 -1.865599 -0.678974 1.672084
1 1.381847 0.792418 -0.953512
1 0.050527 -1.530427 -1.299402
1 2.139080 0.681404 1.944531
1 2.058302 0.540429 -1.945090
1 1.300257 2.021040 -2.296144
1 -1.449987 -2.149226 -1.061681
1 1.430430 0.033579 2.361188
1 -0.942284 -0.134811 1.710813
1 1.292203 -1.362150 -1.364233
1 -0.621230 -0.376275 -1.005901
1 -0.094631 -0.407528 1.148444
1 -0.499542 0.499178 0.998905
1 1.199218 2.089222 -0.241181
1 -1.948723 -1.683343 -1.827553
1 1.657722 -1.006039 -2.297380
1 -1.997153 -1.104417 -0.977397
1 -1.684976 -0.805520 -2.256822
1 0.379602 -2.432757 -1.857134
1 1.331149 -0.172394 -1.539337