108
step:0 columns:id,pos dt:1 cell:4.7622031559,4.7622031559,4.7622031559 
A 2.38110160827637 2.38110160827637 2.38110160827637
A -1.58740103244781 -1.58740103244781 2.38110160827637
A 2.38110160827637 -1.58740103244781 -1.58740103244781
A -1.58740103244781 2.38110160827637 -1.58740103244781
A 2.38110160827637 2.38110160827637 -0.79370051622391
A -1.58740103244781 -1.58740103244781 -0.79370051622391
A 2.38110160827637 -1.58740103244781 0.00000000000000
A -1.58740103244781 2.38110160827637 0.00000000000000
A 2.38110160827637 2.38110160827637 0.79370051622391
A -1.58740103244781 -1.58740103244781 0.79370051622391
A 2.38110160827637 -1.58740103244781 1.58740103244781
A -1.58740103244781 2.38110160827637 1.58740103244781
A 2.38110160827637 -0.79370051622391 2.38110160827637
A -1.58740103244781 0.00000000000000 2.38110160827637
A 2.38110160827637 0.00000000000000 -1.58740103244781
A -1.58740103244781 -0.79370051622391 -1.58740103244781
A 2.38110160827637 -0.79370051622391 -0.79370051622391
A -1.58740103244781 0.00000000000000 -0.79370051622391
A 2.38110160827637 0.00000000000000 0.00000000000000
A -1.58740103244781 -0.79370051622391 0.00000000000000
A 2.38110160827637 -0.79370051622391 0.79370051622391
A -1.58740103244781 0.00000000000000 0.79370051622391
A 2.38110160827637 0.00000000000000 1.58740103244781
A -1.58740103244781 -0.79370051622391 1.58740103244781
A 2.38110160827637 0.79370051622391 2.38110160827637
A -1.58740103244781 1.58740103244781 2.38110160827637
A 2.38110160827637 1.58740103244781 -1.58740103244781
A -1.58740103244781 0.79370051622391 -1.58740103244781
A 2.38110160827637 0.79370051622391 -0.79370051622391
A -1.58740103244781 1.58740103244781 -0.79370051622391
A 2.38110160827637 1.58740103244781 0.00000000000000
A -1.58740103244781 0.79370051622391 0.00000000000000
A 2.38110160827637 0.79370051622391 0.79370051622391
A -1.58740103244781 1.58740103244781 0.79370051622391
A 2.38110160827637 1.58740103244781 1.58740103244781
A -1.58740103244781 0.79370051622391 1.58740103244781
A -0.79370051622391 2.38110160827637 2.38110160827637
A 0.00000000000000 -1.58740103244781 2.38110160827637
A -0.79370051622391 -1.58740103244781 -1.58740103244781
A 0.00000000000000 2.38110160827637 -1.58740103244781
A -0.79370051622391 2.38110160827637 -0.79370051622391
A 0.00000000000000 -1.58740103244781 -0.79370051622391
A -0.79370051622391 -1.58740103244781 0.00000000000000
A 0.00000000000000 2.38110160827637 0.00000000000000
A -0.79370051622391 2.38110160827637 0.79370051622391
A 0.00000000000000 -1.58740103244781 0.79370051622391
A -0.79370051622391 -1.58740103244781 1.58740103244781
A 0.00000000000000 2.38110160827637 1.58740103244781
A -0.79370051622391 -0.79370051622391 2.38110160827637
A 0.00000000000000 0.00000000000000 2.38110160827637
A -0.79370051622391 0.00000000000000 -1.58740103244781
A 0.00000000000000 -0.79370051622391 -1.58740103244781
A -0.79370051622391 -0.79370051622391 -0.79370051622391
A 0.00000000000000 0.00000000000000 -0.79370051622391
A -0.79370051622391 0.00000000000000 0.00000000000000
A 0.00000000000000 -0.79370051622391 0.00000000000000
A -0.79370051622391 -0.79370051622391 0.79370051622391
A 0.00000000000000 0.00000000000000 0.79370051622391
A -0.79370051622391 0.00000000000000 1.58740103244781
A 0.00000000000000 -0.79370051622391 1.58740103244781
A -0.79370051622391 0.79370051622391 2.38110160827637
A 0.00000000000000 1.58740103244781 2.38110160827637
A -0.79370051622391 1.58740103244781 -1.58740103244781
A 0.00000000000000 0.79370051622391 -1.58740103244781
A -0.79370051622391 0.79370051622391 -0.79370051622391
A 0.00000000000000 1.58740103244781 -0.79370051622391
A -0.79370051622391 1.58740103244781 0.00000000000000
A 0.00000000000000 0.79370051622391 0.00000000000000
A -0.79370051622391 0.79370051622391 0.79370051622391
A 0.00000000000000 1.58740103244781 0.79370051622391
A -0.79370051622391 1.58740103244781 1.58740103244781
A 0.00000000000000 0.79370051622391 1.58740103244781
A 0.79370051622391 2.38110160827637 2.38110160827637
A 1.58740103244781 -1.58740103244781 2.38110160827637
A 0.79370051622391 -1.58740103244781 -1.58740103244781
A 1.58740103244781 2.38110160827637 -1.58740103244781
A 0.79370051622391 2.38110160827637 -0.79370051622391
A 1.58740103244781 -1.58740103244781 -0.79370051622391
A 0.79370051622391 -1.58740103244781 0.00000000000000
A 1.58740103244781 2.38110160827637 0.00000000000000
A 0.79370051622391 2.38110160827637 0.79370051622391
A 1.58740103244781 -1.58740103244781 0.79370051622391
A 0.79370051622391 -1.58740103244781 1.58740103244781
A 1.58740103244781 2.38110160827637 1.58740103244781
A 0.79370051622391 -0.79370051622391 2.38110160827637
A 1.58740103244781 0.00000000000000 2.38110160827637
A 0.79370051622391 0.00000000000000 -1.58740103244781
A 1.58740103244781 -0.79370051622391 -1.58740103244781
A 0.79370051622391 -0.79370051622391 -0.79370051622391
A 1.58740103244781 0.00000000000000 -0.79370051622391
A 0.79370051622391 0.00000000000000 0.00000000000000
A 1.58740103244781 -0.79370051622391 0.00000000000000
A 0.79370051622391 -0.79370051622391 0.79370051622391
A 1.58740103244781 0.00000000000000 0.79370051622391
A 0.79370051622391 0.00000000000000 1.58740103244781
A 1.58740103244781 -0.79370051622391 1.58740103244781
A 0.79370051622391 0.79370051622391 2.38110160827637
A 1.58740103244781 1.58740103244781 2.38110160827637
A 0.79370051622391 1.58740103244781 -1.58740103244781
A 1.58740103244781 0.79370051622391 -1.58740103244781
A 0.79370051622391 0.79370051622391 -0.79370051622391
A 1.58740103244781 1.58740103244781 -0.79370051622391
A 0.79370051622391 1.58740103244781 0.00000000000000
A 1.58740103244781 0.79370051622391 0.00000000000000
A 0.79370051622391 0.79370051622391 0.79370051622391
A 1.58740103244781 1.58740103244781 0.79370051622391
A 0.79370051622391 1.58740103244781 1.58740103244781
A 1.58740103244781 0.79370051622391 1.58740103244781
