1000
step:0 columns:name,pos,vel cell:10.0,10.0,10.0 dt:1
A 3.626350 1.315110 -0.696806 0.061020 0.016285 -0.011880
A -4.033630 -0.772407 -0.885382 0.468539 -0.448669 0.120572
A 2.105530 4.058910 1.652050 0.185508 0.800256 0.364170
A 0.372965 4.605390 -0.377555 -0.060260 0.059342 0.059689
A -2.974790 1.855170 -2.533830 0.160994 0.419230 -0.264879
A -0.899704 -1.767540 2.977220 -0.067514 -0.155524 0.468283
A -0.236557 1.179500 -2.711360 0.052600 0.307858 0.059539
A -1.740440 -4.642260 -0.346646 0.004274 -0.203276 0.151933
A -3.817030 2.711630 -0.694559 0.135919 0.074555 -0.258305
A 2.205090 2.526980 2.666390 0.122763 -0.050277 -0.195428
A -0.306688 0.355375 -3.138160 -0.004034 -0.336170 -0.401542
A 0.913879 2.565740 -3.314460 0.038268 0.031726 -0.008293
A 4.950930 1.776990 2.820430 0.072129 -0.067579 -0.020914
A -1.016330 3.045040 -1.418530 0.474193 -0.843184 -0.176082
A -0.677012 -0.801439 -1.526080 -0.484414 0.208826 -0.045766
A 0.660509 0.267097 -0.261061 0.271608 -0.264461 -0.298380
A 3.661010 -4.375760 1.121010 0.041199 0.014778 -0.194046
A -2.429210 1.997030 0.489297 0.041764 -0.035264 -0.088141
A -2.941120 0.251789 4.277200 0.011880 0.014719 0.053724
A -2.928530 3.260160 3.961720 -0.451859 -0.384763 -0.135285
A -1.400120 4.270030 0.000803 -0.151959 0.031593 -0.060481
A -2.476290 2.196480 3.118420 -0.006076 -0.032073 0.137100
A -2.209060 -0.350186 -0.467604 -0.472966 -0.056802 0.617831
A 3.992660 -1.829040 -1.828690 0.461217 0.251464 -0.044871
A -1.506810 1.782740 4.343520 0.151466 -0.178656 -0.201548
A 3.374260 4.143010 -1.295240 -0.232287 0.098977 0.012048
A 1.044830 0.706076 0.492025 0.079688 0.077574 0.013894
A 1.883200 1.503620 -3.584830 0.209477 -0.063865 0.174587
A 4.239300 3.824050 -0.955883 0.323216 0.214837 0.296926
A 2.981480 -2.597740 0.559739 -0.145244 -0.224086 0.199829
A -3.067670 -2.703830 -3.284720 -0.131421 0.221858 0.202097
A -0.340466 -3.538110 4.108100 -0.366695 0.213893 -0.073729
A 1.235030 -4.776730 -0.396007 -0.080466 -0.310275 0.246370
A 2.232840 3.003150 -4.851880 -0.012350 0.068654 -0.006240
A 4.481530 4.662280 -1.721490 0.031972 -0.044316 0.099559
A 1.824970 -1.682980 1.736460 -0.050205 -0.001962 0.034805
A 0.305599 -4.419170 0.039747 0.027242 0.196748 0.468613
A 1.081580 -2.883110 -4.763720 0.022852 0.105011 -0.157148
A 0.580758 -0.795146 4.688650 0.063887 0.032427 -0.014333
A -0.702756 3.848370 -3.773110 -0.050757 -0.168522 -0.222186
A -2.374080 2.551360 -2.286860 0.025894 0.181762 0.375714
A -0.858756 -2.027670 3.949000 0.249388 0.238713 -0.157423
A 3.291480 -2.816220 -3.264100 0.335533 0.016791 0.158924
A -0.958469 4.823850 -3.573000 -0.114711 0.019443 -0.230446
A -1.968850 -4.662220 -1.399260 0.075983 0.000103 0.016156
A 4.572470 -2.349490 -1.000710 -0.053079 0.030668 0.036186
A -4.875050 -0.521951 -0.217858 -0.102395 -0.119504 0.117332
A -1.896300 -2.700200 -0.564957 0.030149 0.156498 -0.159114
A -4.365820 -2.846170 -4.633830 0.043160 -0.080952 -0.320572
A 0.469175 1.718600 -1.093650 0.056688 -0.033113 0.059465
A 2.579720 1.379920 2.326670 -0.037587 0.098438 0.012880
A 0.768667 1.698020 1.645910 -0.222305 -0.011773 0.093549
A 2.277260 -4.976710 -0.782442 -0.021016 0.167785 0.312025
A -1.661400 4.633710 -2.219770 0.073312 0.104275 0.099573
A -1.934850 -2.277170 3.318500 -0.019851 -0.016357 0.081331
A -1.705670 -1.055720 -3.922660 -0.071804 -0.007342 -0.004196
A 0.480191 2.240850 3.496650 -0.195708 0.053474 -0.073224
A -0.635418 1.798920 -1.378780 0.087721 0.007275 0.499337
A -4.757000 -3.149340 1.086380 -0.341403 0.014878 -0.292474
A -2.452660 -1.671540 1.383800 -0.041068 -0.362454 -0.138526
A 2.729610 -0.401820 -2.554040 0.106848 -0.294535 -0.014228
A -3.443450 -1.712600 0.366362 0.018817 0.054439 0.110648
A 0.628915 3.607270 3.187580 0.058363 0.001455 -0.034908
A 0.223582 -2.930380 -2.197740 0.059558 0.271598 -0.072825
A -3.530950 -1.365740 3.012980 -0.094747 0.071077 0.174279
A -3.105060 -3.814330 -1.487480 0.177648 0.017317 -0.082535
A -3.736790 0.770559 -3.039960 -0.119875 0.000682 0.319527
A -0.850324 -3.729040 1.724350 -0.079851 -0.038880 0.003265
A -2.495000 4.439610 -2.698570 -0.391625 -0.333493 0.263370
A 4.680220 -0.414483 3.092090 0.105408 -0.018458 -0.182986
A 3.912390 -0.064940 -2.105520 0.189251 -0.286474 -0.325600
A -1.282290 0.473898 3.713710 0.030164 -0.102932 0.202825
A -3.960710 3.180770 -3.177230 0.020019 -0.078785 -0.252057
A -3.855280 -4.743720 -1.248700 -0.002805 -0.129541 -0.006853
A -2.694520 3.306780 2.143490 -0.129115 0.187249 -0.165787
A 1.047320 2.687050 -0.007060 -0.263593 0.337176 0.094967
A -2.267390 -0.189702 -3.125850 0.154543 -0.254222 -0.523400
A 1.468320 -4.484060 -3.277630 0.057296 0.006071 0.113867
A -4.597910 -4.683540 -4.863710 0.108815 0.010553 0.084969
A 3.632370 3.342640 -2.615240 -0.295684 -0.097256 -0.475083
A -2.978030 3.634580 -3.296430 0.075659 -0.103275 -0.170292
A 3.983630 1.664470 -1.811720 -0.029996 -0.099788 -0.138795
A 0.311372 1.339430 0.087631 0.067513 0.141736 -0.103777
A -4.007830 2.575570 1.062180 0.160306 -0.076032 -0.058475
A 0.804900 4.601090 -3.614350 -0.163057 0.159281 -0.181753
A 3.786320 2.155560 0.057457 -0.110313 -0.273324 -0.141821
A -2.885920 -0.264685 3.037310 -0.204142 -0.069610 -0.451064
A 3.388850 -4.910810 -3.051050 -0.178501 0.015284 0.123201
A -4.688490 -0.169923 -1.058300 -0.221043 0.387643 -0.245226
A -1.299550 1.202380 -1.021110 -0.158497 -0.165406 -0.011161
A -0.069676 -4.289550 3.610340 -0.146118 -0.267278 0.290910
A 2.770900 4.051870 -3.226420 0.091159 0.079261 0.344691
A 4.338290 -2.532260 -3.687310 -0.476506 0.071690 0.113753
A -1.041870 -0.398029 -3.583070 0.038418 0.137982 -0.048103
A 2.541580 -1.036830 0.930758 0.055716 -0.084136 0.212898
A 3.477240 -4.179170 4.264410 -0.465375 0.366351 -0.158375
A 0.990730 -3.811350 -0.471604 0.038651 0.131808 0.062749
A -0.963308 -1.527160 4.800600 -0.069774 0.043367 -0.176260
A -3.223880 3.996270 0.622607 0.268283 0.197681 -0.274058
A -0.740957 -4.087690 -0.097969 -0.062032 0.069519 0.142718
A -4.648780 -0.307577 0.661990 0.037387 0.104488 0.405201
A 1.063550 2.689700 -1.054230 -0.127160 -0.012279 -0.184941
A 1.417110 -1.503580 -4.140700 0.326966 0.046437 -0.051251
A -3.250450 -3.389540 -0.462757 0.069723 0.040342 0.088079
A 0.032638 -3.618180 -0.544459 -0.135187 0.156451 -0.012030
A -3.475190 4.152650 -4.457450 -0.333981 -0.118920 0.223631
A -0.834256 3.256570 1.164110 0.314049 -0.583094 0.955884
A 1.896070 -4.804680 -4.979030 -0.426970 0.067031 0.804553
A 2.344020 -0.327610 0.218256 0.017968 0.220909 0.033474
A -3.013580 -4.198160 4.682900 -0.406439 -0.178928 -0.078951
A -1.666050 3.571240 2.297900 -0.199983 -0.141933 -0.165668
A 2.156470 3.294120 3.220580 0.228447 0.011676 0.258472
A 4.596480 -2.997700 0.200835 0.654086 0.109790 -0.213169
A -3.634470 -0.886382 -3.874640 -0.428091 -0.038796 0.161270
A -2.421610 2.690570 -0.632297 -0.162317 -0.298849 -0.000929
A -4.837610 -0.923373 4.548860 0.019564 -0.055341 -0.166609
A -2.579070 0.024889 0.369860 -0.268391 -0.000372 0.144715
A -1.106530 -3.370490 -3.142700 -0.235683 -0.365428 -0.091001
A -3.373710 -3.163080 -4.907090 -0.011614 0.108205 -0.111930
A 2.109060 1.869100 -4.606810 0.424416 -0.014913 -0.234594
A -1.991740 0.201763 1.364400 0.114713 -0.419897 -0.226109
A -0.073805 -2.015550 -3.632910 -0.020425 0.245403 -0.004167
A -0.935095 -4.800290 3.345740 0.086528 -0.295680 -0.211252
A 0.877877 -1.077390 -0.285382 0.288970 0.105242 0.354456
A -1.701590 0.375891 -2.545940 -0.034241 0.176649 -0.120570
A -0.392136 3.634120 -1.082820 0.304747 0.257172 0.129859
A -0.780484 2.687920 3.636890 0.077631 0.130728 -0.048309
A 4.570860 -1.862280 -0.125613 -0.051675 -0.128801 0.228154
A 0.154122 -2.563720 4.066860 -0.086313 -0.225542 -0.099935
A -2.772120 -0.790462 -4.202960 0.433596 0.230729 -0.206912
A 1.996490 -2.940720 0.250019 0.005362 -0.017073 0.117133
A -3.167240 0.349270 -3.677890 0.107348 -0.341459 -0.052392
A 2.340420 -3.968750 -0.428560 0.009075 -0.101503 0.146206
A 4.334460 -0.476022 3.982960 -0.179999 -0.253456 -0.368744
A 1.830170 2.810270 -2.098060 0.066336 -0.134219 -0.049889
A -2.340600 -1.375060 2.906890 -0.529487 -0.056798 0.335519
A -0.408591 1.953440 4.124220 0.472757 1.099610 0.129063
A -2.753950 4.218500 1.468510 -0.073102 0.025699 0.140168
A 4.070160 -0.839874 -0.046499 -0.163240 -0.283928 -0.215661
A 1.232090 4.341560 2.033670 -0.198345 0.042439 -0.285876
A -3.926340 1.043110 -3.927650 -0.062915 0.226230 -0.229040
A 0.456970 -4.905890 -2.750570 0.135388 -0.011808 0.175412
A 1.045490 -0.669568 1.738060 -0.136319 -0.068478 -0.125453
A -1.227250 1.699070 3.358430 0.053340 0.154983 -0.011779
A 2.601020 -2.051970 -0.069578 0.051210 0.131697 0.105680
A -0.049933 0.905682 -0.784305 0.005554 0.344391 -0.176677
A -0.087832 -4.574530 2.695870 -0.103272 -0.150542 -0.340537
A 1.444590 -0.466110 4.312630 0.387960 -0.353490 -0.093643
A 4.239970 -2.319800 -2.677090 -0.495354 0.156182 0.122370
A -4.236980 2.290090 2.369400 -0.101149 -0.019814 -0.245697
A 0.694284 2.430650 2.396290 0.006876 0.088207 -0.060154
A 1.613890 1.224350 3.707830 -0.055112 0.216814 -0.114585
A 3.823000 4.184490 -3.194050 -0.165379 0.062787 0.034392
A 4.126870 0.650897 4.413740 0.281090 -0.503936 -0.128378
A 2.987910 0.942434 0.008021 -0.009338 0.176577 0.023012
A -2.796470 -4.375820 -0.548149 0.063621 -0.015163 -0.031711
A 3.904600 -1.081450 -3.989540 0.083100 0.031199 -0.077686
A 2.626830 -1.521300 -4.305800 -0.020824 -0.027343 0.042459
A -3.005140 1.264910 -1.035180 -0.012319 -0.171167 -0.149378
A 3.897010 3.017260 2.723590 0.096207 0.033070 0.167624
A 4.252840 3.679680 0.484901 0.097003 0.232382 -0.297639
A 1.641200 -3.259330 -1.623790 0.339883 0.089874 -0.260588
A -2.979600 2.578220 -4.864920 0.045683 -0.004613 -0.119162
A 3.008680 -3.858650 -4.162400 -0.008084 -0.020912 0.179308
A 2.514670 -4.623540 -3.480060 0.068449 0.294678 -0.417083
A -3.917580 0.496664 4.215960 0.015585 0.022648 -0.043631
A -3.438810 2.878620 3.020450 0.159518 0.052486 -0.052216
A 1.651280 1.183810 1.063740 0.026327 0.200472 0.229074
A -0.699958 0.498607 -4.312520 0.092175 -0.227398 -0.042806
A 0.575574 0.500502 1.962800 0.004093 0.001878 0.014041
A 3.921620 0.124521 2.561600 -0.054610 -0.117769 -0.183842
A 1.932670 -2.175780 -1.771350 0.003950 -0.129687 0.605036
A 3.435490 -3.198440 -4.777130 -0.045660 -0.060506 -0.499797
A -3.631600 3.517170 1.930500 0.076634 -0.169398 -0.086482
A 1.978060 0.772378 -1.786160 0.146142 -0.043156 0.301079
A 4.463590 2.498340 3.339000 0.043553 -0.129597 0.106315
A 3.285210 -0.841489 -4.782750 0.090853 -0.177873 0.186023
A -1.104500 -0.436082 -2.585240 -0.147836 0.128532 0.248420
A -1.751760 3.584070 -3.472390 -0.227988 -0.322802 0.636028
A 0.139195 -2.823820 -4.387590 -0.094664 -0.515736 0.250001
A -3.687290 -4.565960 -3.156930 0.296165 0.307193 0.172237
A 3.181170 3.560540 -4.541830 -0.239147 0.165491 -0.069880
A 3.268860 3.748790 4.435730 0.509924 0.255872 0.368461
A 2.627120 -4.539640 2.893410 0.025754 0.193195 -0.131145
A -3.988790 0.279400 1.480540 0.087311 -0.224560 -0.112283
A -0.423758 3.871980 -0.115372 -0.217367 0.067803 0.207567
A 2.081160 4.798580 0.562941 -0.226903 -0.126840 -0.011836
A 1.780780 2.376150 -0.473078 0.119683 -0.359049 -0.187876
A 4.331070 -1.403550 3.465340 0.195488 0.228990 0.130967
A 1.435880 -4.156860 0.363091 0.151991 0.005281 0.031322
A 4.572020 3.687960 -3.519300 0.025127 -0.141086 0.184610
A -2.849880 -2.647380 1.028160 0.153393 0.154964 0.061095
A 3.534260 4.797210 4.652160 -0.175683 0.012780 -0.104370
A 3.074860 -1.049160 0.093363 0.016746 0.127904 -0.163875
A 1.239310 1.451710 -0.399386 -0.234995 0.139275 0.014864
A 4.645440 0.478704 -0.692378 0.118495 0.211285 0.353602
A -2.524570 1.114850 2.852150 -0.021687 -0.287212 0.202380
A 1.457060 1.130050 2.091930 -0.107549 0.027529 0.137883
A 2.314780 4.392180 4.061420 0.146795 -0.107606 -0.082455
A 0.847155 -0.009141 -3.120940 -0.180601 -0.032422 0.081645
A -1.970040 -1.785760 -4.773090 -0.090263 0.140144 0.106671
A 4.062610 -3.809400 2.232960 0.034945 0.008693 0.189766
A 2.406310 2.073720 -1.586040 -0.168623 -0.079189 -0.003573
A -0.665747 1.575180 -4.976170 -0.143896 0.078673 -0.158756
A -1.094430 -4.985360 4.928990 -0.013661 0.141984 0.140075
A 0.489443 -4.224250 -3.470870 0.035534 0.000870 0.133202
A 1.800560 4.727110 -4.020040 0.378870 -0.332783 0.117628
A 2.111480 -0.952583 -3.434530 0.100053 -0.159103 -0.139526
A 0.207965 -1.419960 -4.635690 0.019606 0.138512 0.169862
A 4.670230 2.976910 -1.325110 -0.293181 -0.160800 -0.179607
A -1.594460 4.136230 -4.178880 0.451571 0.414912 -0.307786
A 4.567550 0.922005 2.269950 -0.092310 0.115812 0.231745
A -4.488010 1.669550 1.652100 -0.002175 0.052506 0.081999
A 3.665210 -2.623450 1.248140 0.186184 0.272144 0.450719
A 1.005590 -3.086950 2.915020 -0.169655 0.197329 0.089463
A 3.910100 0.660817 -1.492380 -0.047151 0.219560 0.199265
A -3.882380 -1.403650 4.227270 0.006954 0.093004 0.006949
A 1.859840 -4.884080 3.376830 -0.142350 -0.088663 0.283177
A 4.453110 -2.749680 3.058840 -0.102396 -0.055902 0.083768
A 4.524620 -2.772450 -4.603050 0.147740 -0.021594 -0.009906
A 2.472980 -3.866220 -1.441330 -0.132439 -0.058154 0.153992
A 4.544820 -4.328840 2.906290 0.189046 0.021541 -0.413062
A -2.522660 2.012620 -1.389830 0.253447 -0.106704 -0.123515
A 2.450220 0.644002 3.803100 0.228465 0.368163 -0.035370
A 1.749560 -2.963160 2.056660 -0.276144 -0.140522 0.381967
A 1.849970 3.577330 -2.940530 0.048807 -0.247989 0.013504
A 0.177886 1.226490 1.066230 -0.156259 -0.190597 -0.048281
A 3.118390 4.197610 1.765560 0.083923 -0.047488 -0.145769
A -4.873920 -2.402340 -2.938830 0.451300 -0.118201 -0.047402
A 1.647690 -4.305230 -1.088450 -0.002976 0.245610 -0.362592
A -1.092590 4.432180 4.129340 0.104814 -0.160917 -0.173057
A 4.578790 1.520650 1.330110 -0.186869 0.022624 0.093159
A 1.041050 4.557270 -1.177870 -0.002893 -0.055722 0.062319
A -4.759560 3.252090 -0.562802 0.230971 -0.201783 0.198387
A 2.795710 -4.976310 -1.641070 0.047390 0.027095 -0.077120
A -0.245579 -4.523740 -1.792160 0.504583 -0.077371 -0.540446
A 2.782610 -4.705760 0.162190 0.090035 -0.008387 0.014352
A -3.523560 -1.946110 -1.628910 0.682051 -0.043313 -0.427060
A -3.283560 2.466290 -3.355790 0.078091 -0.054605 -0.024397
A 3.895680 1.751380 2.863220 0.267398 -0.203350 0.255687
A 4.957190 3.491800 4.655910 0.269079 -0.309629 -0.134202
A -1.060670 4.059420 -2.838580 -0.183599 -0.142651 -0.157388
A -4.752070 -3.358320 2.652680 0.042279 -0.074870 -0.333798
A -4.521180 -0.318123 -2.016630 -0.113120 -0.125546 0.064360
A 1.612120 3.474810 -0.711186 -0.022234 -0.161712 -0.053203
A 3.196780 -2.133580 -1.470690 -0.262585 0.135623 0.429735
A -3.436180 -4.921970 0.479698 0.010816 -0.077914 0.093596
A 0.949652 4.634260 2.926250 -0.126828 0.121010 0.221011
A -1.256300 -4.981540 0.654718 0.184551 0.119804 0.113447
A -4.712150 -4.339510 4.130200 -0.000741 0.138309 -0.014860
A 2.491640 -3.047980 -3.744750 -0.358340 -0.265170 0.033002
A 3.430340 3.797760 3.466160 -0.043127 -0.039725 -0.161054
A 3.100400 -4.021430 2.134740 -0.139622 0.112336 0.053207
A -1.880850 -2.188160 2.374160 -0.011946 0.028752 -0.111898
A -0.234584 0.986043 -1.749450 0.262755 0.221057 0.577982
A 2.350300 0.321989 4.855000 -0.064675 -0.200580 -0.328595
A -0.681687 4.939730 -0.194457 0.002185 -0.042441 -0.263003
A 4.423820 -3.237070 -2.945220 0.204107 -0.009364 0.026160
A 0.162186 2.662840 4.693630 -0.332283 -0.330953 0.202537
A 2.185880 0.508493 1.979150 0.317575 -0.113441 -0.540132
A 0.717845 0.582689 2.996750 0.071611 -0.295199 0.119258
A 2.929960 2.027280 0.324426 -0.432429 -0.027277 0.194071
A 2.295670 1.522380 -2.505710 0.040543 0.139561 -0.037650
A 0.765120 -2.177150 -4.125310 -0.025077 0.047463 0.169208
A 1.569190 3.979810 3.541750 -0.257910 0.234765 0.043080
A -4.881240 4.696510 4.357960 0.161727 0.087581 0.051494
A -2.849820 4.814830 -4.688510 0.003349 0.444694 -0.017834
A -0.361349 -0.575785 4.278640 0.025656 0.017891 0.293957
A 0.041313 3.609530 1.225890 0.167142 0.034269 0.159820
A 3.116780 -2.514130 -4.203560 0.104858 0.441259 -0.066750
A 2.899620 4.564010 -4.018070 -0.176815 -0.453176 0.452305
A 3.175670 2.325690 2.670040 -0.361685 -0.134035 -0.313951
A 0.363279 -1.459280 -0.952425 0.173118 -0.644324 0.331432
A -0.900453 0.733448 0.765232 0.062354 -0.048790 -0.032433
A -2.717500 4.617570 -0.118309 0.027571 -0.040654 0.030666
A 0.339966 3.528450 -3.895740 -0.423537 -0.074979 0.179955
A 1.285580 2.727670 3.190930 -0.000428 0.116121 0.008184
A 1.979930 -3.956990 -4.124470 0.071815 -0.042208 0.036835
A -4.328650 -1.668100 -0.144091 -0.147269 0.122984 -0.047912
A 3.920620 3.031450 -4.937710 -0.008211 -0.225344 -0.163148
A 3.994330 -3.476670 -4.091450 0.224028 -0.111641 0.342565
A 0.891853 -1.937870 0.533112 0.012169 0.024353 0.108717
A 0.012549 -3.392540 2.035060 0.124174 -0.012055 0.035742
A 4.506340 -2.726160 2.044130 -0.178164 -0.077648 -0.085850
A 4.668970 1.280840 -1.187190 -0.039606 -0.109716 -0.354795
A 1.023320 -1.037260 -3.405320 -0.150265 0.145452 0.195233
A -3.777690 -3.161860 3.274850 0.020223 -0.007802 -0.149495
A 3.281970 -0.060248 4.671540 0.101045 0.172887 0.008081
A -1.452930 2.435180 0.876513 0.170780 0.135661 -0.068480
A -2.003910 -1.118160 3.802900 -0.197710 -0.045372 -0.024178
A 1.295110 4.142950 0.994340 0.075760 0.049816 0.196967
A 3.167250 0.711024 2.953130 0.051848 0.283178 0.043770
A -4.624220 -0.732671 -4.508600 0.007253 0.013765 0.121350
A -3.805960 -4.367790 -0.330900 0.151436 0.115200 0.193981
A 4.572930 -0.864947 -1.668300 0.034724 0.014224 -0.570823
A -1.530530 1.024580 -4.575630 -0.010766 0.342403 0.114194
A 1.471190 -0.041500 2.388940 -0.258606 0.037397 0.149584
A -0.304573 1.104750 2.146510 0.090362 -0.063040 -0.096529
A 4.807660 -0.973837 1.714160 0.032315 -0.104256 -0.194242
A 0.013662 -2.047710 -1.628190 0.330072 -0.265556 0.117561
A 1.072510 0.250926 4.762230 -0.173652 0.144695 0.075943
A -3.920420 -0.341661 2.687700 0.035884 0.161030 0.237066
A -1.564820 4.537330 1.656010 -0.109718 -0.081212 -0.019188
A -4.864860 3.145510 0.443184 0.026553 -0.243975 0.078809
A -4.333080 0.766513 2.235050 -0.152555 0.048801 0.245936
A 1.625380 2.077250 1.690210 -0.064922 0.026815 0.436469
A 3.295020 2.221690 -1.131120 -0.095148 -0.125225 -0.031770
A 4.277960 -1.574530 4.524860 0.261332 -0.136070 0.102922
A 1.638800 0.812809 -2.669640 0.002872 -0.166756 0.044570
A 3.381270 -1.259350 3.257420 0.142783 0.105319 -0.217583
A -1.087310 3.918410 -1.765600 0.029636 0.340481 -0.507292
A -1.793380 -4.926400 3.916260 -0.133062 -0.204618 -0.102793
A -0.652644 1.126180 4.062770 -0.276832 -0.973215 0.003640
A -0.674589 1.551530 -0.304631 -0.063849 0.047336 0.101632
A 2.825520 -0.401290 -0.640434 -0.203968 -0.161326 -0.286391
A -2.222090 0.877024 -3.493080 0.149563 -0.237762 -0.046515
A 0.649528 3.101290 4.055470 -0.326986 -0.016668 -0.310060
A -4.861950 1.362180 -2.060380 -0.064539 0.322240 0.096968
A 2.865730 0.756853 -1.108680 -0.267517 0.316298 0.601530
A 4.542010 -1.816360 2.612440 -0.040037 0.039124 -0.219198
A -3.478860 -1.803060 -2.571370 0.202939 -0.014815 -0.129240
A -4.527900 -4.764550 -3.499650 -0.568435 -0.088027 -0.010747
A 0.486232 -1.768630 -2.683860 -0.124809 0.132816 0.099770
A 0.768160 -3.496130 -1.411980 -0.283401 0.052331 0.097302
A 4.808730 -2.985520 4.480680 0.316717 -0.057319 -0.202106
A -1.583130 -1.212590 2.440190 0.623840 0.160485 -0.050569
A 1.692210 -2.546030 -4.008920 0.055837 0.045881 -0.030289
A -1.662620 0.296897 0.240646 0.045998 0.135379 -0.043544
A 0.074833 2.471370 1.446170 -0.052215 0.064241 0.094875
A 3.193560 -0.605383 -3.506740 -0.134520 -0.007817 0.042675
A 0.108218 0.890487 4.938000 0.026010 0.364219 -0.065855
A -1.684620 0.108602 -4.167000 -0.121914 -0.055891 -0.000510
A 1.802440 -3.090980 4.395840 0.294931 -0.149038 0.172397
A -1.851000 3.355800 4.929020 -0.329259 0.030002 -0.203495
A -2.148020 1.072330 -1.772620 0.070921 0.047834 -0.020280
A 0.338268 -4.522180 -0.870821 -0.064826 -0.076132 -0.551571
A 2.261030 4.190340 -1.211390 -0.010316 -0.268500 -0.085590
A -3.993730 -3.293140 -3.257230 -0.026697 0.034671 0.147308
A 0.409513 -1.538690 2.322790 -0.039093 0.458967 0.087230
A -0.394550 1.932530 2.679760 -0.051392 0.178510 0.058651
A 1.338150 -3.793450 -4.880480 -0.003845 -0.203967 -0.046329
A 1.930590 3.250700 1.348680 0.080809 -0.864904 -0.018606
A 2.227110 2.447050 3.980810 0.069821 -0.185865 -0.017174
A -4.748250 3.174770 -3.950020 0.230184 -0.115297 -0.146434
A 3.073050 -4.988210 3.632580 0.143471 -0.185233 0.073322
A -2.783550 -0.703182 -1.271220 -0.009260 0.045660 -0.110386
A -0.575808 4.524880 1.873520 0.066942 0.126503 0.165410
A -4.554270 -2.089200 4.679390 -0.097825 -0.071913 -0.067068
A -0.874863 -0.291607 0.191296 0.221202 0.264978 -0.005170
A -1.411430 3.769940 -0.906422 0.190514 -0.281424 0.509731
A -4.657640 -4.817880 -0.378889 -0.193655 -0.117071 0.113989
A -3.288870 -3.359450 -3.958330 0.011057 -0.077878 0.036496
A 4.707610 -4.212720 -3.940750 -0.054968 0.035000 -0.108785
A 2.870520 -4.885250 1.267500 -0.131025 -0.038158 -0.248216
A -2.503820 3.128880 -4.189550 0.081214 -0.085980 0.087471
A -1.123850 4.724150 -1.025460 0.014698 -0.080540 -0.226925
A -3.810570 -1.845170 1.599900 0.038032 0.135406 -0.379311
A 3.410930 3.008130 0.037821 -0.011581 0.221721 -0.128010
A -0.756945 0.352377 4.628800 0.089644 -0.153645 0.130131
A 3.579730 3.141180 -1.097170 -0.000917 -0.010860 0.015774
A 3.812190 -4.540350 0.021100 -0.002656 0.042754 0.378448
A -2.257260 -3.923070 1.130780 -0.331712 0.139287 0.030749
A 0.193262 -0.015161 -4.848770 -0.078645 -0.241652 0.173509
A 1.263590 -1.025980 2.716210 -0.008690 -0.102386 -0.077629
A -3.853040 1.189610 -4.954760 0.270091 -0.609654 -0.117710
A -4.358610 -2.384770 0.674582 -0.015619 0.255271 0.194943
A 2.367400 -0.469323 -4.384560 -0.016014 0.043123 0.013499
A 0.792187 -0.627312 3.642960 -0.129586 -0.029223 -0.139064
A -1.795250 -2.027680 -3.692830 0.042942 0.029975 -0.060909
A 2.052190 2.397350 -3.037150 -0.096396 0.002897 -0.058956
A -3.938540 -2.839870 -1.934420 0.103282 -0.058859 -0.175848
A 4.633100 1.365040 3.972700 -0.261543 0.224919 -0.614156
A -3.715900 0.160874 -2.167040 0.359047 0.050348 0.025336
A -0.984757 2.865120 4.705930 0.190808 0.022876 -0.070819
A -2.253570 -3.969140 -2.106600 0.086529 0.100369 0.037035
A 2.948020 -2.927400 4.271750 0.288871 -0.271751 0.127687
A -2.105390 -4.503040 4.779060 0.242542 0.001144 0.070520
A 1.709630 -4.096370 -2.258450 0.103254 -0.048195 -0.014056
A 1.487200 -2.034310 -0.310023 0.055567 0.039194 0.114025
A -0.218693 3.479590 -2.162580 -0.148313 0.079514 0.162676
A 3.451870 -0.090926 3.701020 -0.065280 0.034102 -0.199334
A 0.957126 -3.660350 2.154510 -0.013921 -0.118571 -0.003062
A 1.328470 -2.013630 -3.192350 0.146042 0.015360 -0.039992
A 3.335640 1.238020 -3.997040 -0.321861 -0.504444 0.044901
A -4.161490 0.666337 -0.118644 0.394560 0.060234 -0.250975
A 0.942796 0.724358 -1.172300 0.136142 -0.196374 0.284586
A 0.888489 1.219630 -3.103200 -0.279380 0.069285 -0.119738
A -4.322370 2.377060 0.027580 -0.006189 -0.017965 0.007752
A -1.044010 3.942790 4.997930 0.164560 -0.033129 0.047594
A 0.875468 1.667150 -4.978810 -0.329601 -0.083489 -0.650363
A -4.919890 4.704720 1.844360 -0.040198 -0.572471 -0.005558
A 0.442629 3.632180 -0.457995 0.272274 -0.285687 0.023294
A 2.674880 -3.875140 4.843820 0.054039 -0.247569 -0.092410
A 4.322380 -0.090450 1.263220 -0.450027 -0.571820 -0.137623
A -4.094970 1.517080 3.966030 -0.087915 0.045786 -0.017706
A -1.662900 -3.794500 -0.799876 -0.049263 0.112875 -0.088089
A -4.335750 4.627680 0.473811 0.303746 0.554329 0.513402
A -0.470508 4.575750 -2.322050 0.110472 -0.216381 0.405154
A -2.879290 -2.856050 2.090040 -0.186684 0.307143 -0.008005
A -1.602390 2.274850 -0.104972 -0.029182 0.072949 0.710438
A -3.918690 4.908870 -4.128190 0.025705 0.148278 -0.211982
A 4.934900 0.499144 -3.569950 0.069143 0.093476 0.029348
A 1.115100 -3.444530 -3.904380 -0.187570 -0.047382 -0.086456
A 4.507110 -4.574280 1.608150 -0.156547 -0.018308 0.111925
A -4.017270 -3.903360 4.880510 -0.121931 -0.075694 0.053524
A 4.993970 -2.138860 3.766380 -0.131556 -0.145627 0.119642
A -3.610120 3.202320 -4.202480 0.034916 -0.116281 0.185869
A -4.325740 4.267520 -3.407260 0.009486 -0.208071 -0.041834
A 0.278525 2.007660 -2.014180 0.293981 -0.220932 -0.219538
A -2.193070 1.525330 -0.395943 -0.049829 -0.131027 -0.064137
A -2.675700 -3.782970 2.035670 -0.013854 -0.117997 -0.016384
A -2.242580 3.849140 4.080180 -0.053484 0.735277 0.268766
A 0.062260 -3.409470 3.208020 0.450414 0.109004 -0.127055
A -0.517187 -4.694660 -2.870340 -0.033926 0.556397 -0.217835
A 2.991510 2.442840 4.819810 0.117791 0.109949 -0.003212
A -2.903810 2.005770 1.334630 0.239983 0.174362 -0.129305
A 1.908170 2.314910 0.841547 0.048510 0.247260 -0.299874
A -1.536090 -3.206900 3.449610 0.090999 0.062874 -0.099040
A 1.731570 -0.300996 -0.637054 0.142616 0.054021 0.122302
A 0.370594 0.782932 -3.892100 0.028516 -0.098212 -0.019655
A -0.736899 -4.381320 -1.046590 -0.295495 0.255355 0.398964
A -2.090940 -1.476000 0.179432 -0.279067 -0.117009 -0.030012
A -0.669604 -0.736943 2.704690 -0.062099 -0.468593 0.259444
A -4.352640 0.800078 -1.259600 -0.078824 0.136348 -0.089174
A 4.170630 1.486120 -3.602580 0.065187 -0.221224 -0.041848
A -0.652082 0.144233 2.438950 0.484803 0.757293 0.691861
A -2.586210 -1.402570 -2.085260 -0.187507 0.141581 -0.060608
A 3.530530 -0.860285 -1.340110 -0.081562 -0.109002 0.042923
A 0.225018 -0.929040 -1.664710 0.121520 0.267045 -0.651397
A 4.720590 -3.763270 -4.899990 0.022656 -0.117112 0.026058
A -4.410410 -1.369560 2.304020 -0.012210 0.003877 0.015495
A -3.997450 4.458530 1.514670 0.184454 0.151296 -0.029369
A -2.977260 -0.167909 1.469700 0.020627 0.036496 -0.088489
A -1.806970 -2.009990 4.231610 0.024563 0.080001 0.183401
A -3.563460 -4.235550 1.439760 -0.034700 0.125541 -0.001529
A -2.678310 1.769600 2.204800 -0.345091 -0.184329 0.126041
A -3.876750 2.679410 -2.165990 0.055199 0.198276 -0.135896
A -2.371630 1.257920 4.698620 -0.041564 0.019721 0.090218
A 0.861257 -1.720800 3.389740 -0.053268 0.002666 -0.264619
A -0.993027 -3.014580 -2.258620 0.005229 -0.026131 0.369234
A 2.351810 -2.303600 3.935100 -0.520274 0.161307 0.252506
A 3.681040 -0.839161 0.978796 -0.010378 0.126173 0.027093
A 1.247080 -0.396242 0.429203 -0.039926 0.193086 -0.053294
A -4.972690 0.639189 0.302024 -0.436590 -0.098859 0.054916
A 3.927770 4.837320 3.030510 0.030267 -0.178596 -0.069007
A -4.245780 3.612830 -2.394220 -0.225426 0.088758 0.193687
A -2.972850 -2.402430 3.113110 -0.047466 -0.089726 -0.173034
A -3.586540 2.389040 4.341850 0.047141 -0.074183 -0.145890
A 2.877840 2.446200 -2.368290 0.130329 0.020308 -0.019082
A -3.231610 1.849380 -4.246630 -0.314902 0.025758 -0.117067
A 4.054110 3.733980 -1.902690 0.273955 0.117232 0.139951
A -1.275230 3.393970 0.431192 -0.532388 0.083411 -1.050810
A 2.359060 -2.946840 1.355250 0.139359 0.120449 -0.261191
A -3.423610 -4.233460 -4.368240 -0.005631 -0.121419 -0.005794
A 2.845040 -2.515850 3.179110 0.322228 -0.034035 -0.092242
A -3.685590 0.679368 3.256010 0.078463 -0.073184 -0.176343
A 0.272437 0.310810 4.035880 0.116836 -0.004011 0.117052
A -0.114851 -2.642820 -0.801996 0.043343 0.074809 -0.135869
A 4.215500 1.179460 0.179992 0.032135 0.096263 -0.311534
A 4.854560 -3.538190 -1.332010 0.019028 0.353310 0.017193
A 2.293520 4.842960 -2.763850 0.038940 -0.160786 0.452243
A -4.371300 -3.968840 0.568499 0.117470 0.129420 -0.140979
A 4.209270 2.740880 0.769674 0.353291 -0.109042 -0.061516
A 3.737920 -4.707370 -3.928230 -0.085067 0.199546 -0.090847
A -0.191389 0.499314 0.040253 -0.458182 -0.225032 0.461138
A 3.495850 -1.606610 -3.204420 -0.017081 -0.114106 -0.033514
A 1.439750 4.799820 -2.052220 0.116760 0.104357 0.197491
A 2.356150 0.790004 -4.373200 -0.075613 0.444358 0.405259
A 4.447900 2.284000 2.028530 -0.116249 -0.051500 -0.012407
A 4.746530 -0.083980 -2.684120 -0.052772 0.102400 -0.080032
A -4.818310 1.970360 0.731049 0.077923 -0.027166 0.171202
A 3.410000 0.942544 4.943860 -0.343137 0.079758 0.235266
A 3.524250 -1.726420 0.584420 0.152697 -0.297460 0.084075
A -1.558430 3.282600 3.881790 0.385768 -0.279537 -0.149587
A -1.488180 -2.935350 -3.955440 -0.133411 -0.318730 0.084710
A -2.212200 -4.902440 0.650367 -0.225297 0.028542 0.038384
A -2.050710 3.505870 -2.452920 -0.284662 0.175084 -0.138547
A 3.458220 2.798600 1.884290 0.008534 0.136180 -0.241876
A -4.787330 -3.951070 -3.072590 -0.035269 0.298032 -0.127794
A -1.985680 4.452110 -4.975290 0.023223 0.018097 -0.310278
A 1.952760 -0.569441 3.257340 -0.087239 0.173643 0.152246
A -3.489950 -0.860673 2.014960 0.053448 -0.074391 -0.192852
A -2.406220 -2.659750 4.668540 -0.239122 -0.120010 0.018584
A 4.244700 -0.307288 -0.962884 -0.199247 -0.076328 0.071308
A -1.834030 -4.595420 -4.250580 0.082594 -0.106451 -0.090962
A -0.164851 4.924650 0.575549 0.167980 -0.121711 0.306713
A -4.920210 0.133182 4.072950 -0.169203 0.183533 -0.381866
A 0.969211 -1.943900 4.901310 0.093518 0.017113 0.030138
A 1.554100 3.158790 4.051940 0.350113 -0.015807 0.188532
A -1.961550 -3.609460 4.224400 -0.187560 0.002746 0.023890
A -2.738750 -1.459170 -3.483240 -0.134930 -0.163351 0.038067
A 4.256240 4.583380 -0.200982 0.188384 -0.011242 -0.110480
A -4.518570 4.645100 -1.847850 0.086380 -0.031554 0.006899
A -2.352670 -0.390106 -2.187350 0.044993 -0.065909 0.222111
A -4.387330 1.019560 0.920331 0.260986 0.109608 0.047883
A 3.499180 -1.121880 4.232160 -0.181451 0.244183 -0.064916
A -4.571680 -2.473310 1.881430 -0.334066 0.408280 0.012851
A 2.063500 -1.215380 0.039233 -0.107038 -0.156233 -0.359277
A 2.742790 -1.497330 -0.790745 0.062436 0.320978 -0.375376
A -4.833340 -1.858440 -4.250400 -0.114816 -0.058288 0.014081
A -4.841720 -4.409840 -1.267300 0.090927 -0.362997 -0.114599
A 4.963110 3.351570 3.484950 0.052523 0.021444 -0.017917
A 2.754090 1.571750 4.434530 -0.096985 -0.124112 -0.063987
A 2.999510 -1.853170 4.695140 0.229752 -0.321052 0.044785
A 4.257680 2.095890 -0.973213 -0.025247 0.356628 0.136605
A -2.327520 -3.185420 2.867260 0.029594 0.252380 0.031502
A -3.636750 -3.745080 2.396160 -0.217445 0.053907 -0.070101