256
step:0 columns:id,pos dt:1 cell:6.3496,6.3496,6.3496 model:lennard_jones
A 1.750432 2.959047 -1.698169
A -0.035590 0.600425 0.835480
A -3.060420 -1.493801 -3.077010
A -1.805477 0.154492 3.068139
A 1.383787 -0.286132 -2.223820
A 0.121576 2.740271 -2.399660
A -0.680639 1.594061 -2.835530
A -2.960860 2.113560 -2.315890
A -2.617700 1.163507 0.610241
A -2.066477 1.819630 -1.490308
A -2.365391 -2.459073 -1.567272
A 2.414080 1.269660 2.978940
A -2.819970 -2.240488 0.013118
A -0.140929 -1.164167 0.037894
A 0.836611 -1.051392 2.969873
A 3.055999 -2.485780 -2.015033
A 1.626241 1.878561 -1.344877
A 2.545599 1.341893 0.476372
A -0.643424 2.502873 0.903586
A -1.411751 -0.619080 -0.301193
A 2.541897 -1.785711 2.581931
A -1.328813 -1.271717 -3.136160
A -0.837703 -2.890760 -0.868816
A 1.842241 -1.351303 0.449806
A -0.976435 0.947290 1.342039
A -0.031157 0.416743 1.832349
A 2.778077 -2.247301 -2.828700
A -1.129581 -0.300603 -1.522831
A -0.153038 1.417453 1.898118
A -1.711541 0.608279 0.826604
A -1.738781 -0.825562 0.741151
A 1.961798 -2.179367 -1.261958
A 1.332121 -2.010347 -2.911820
A 0.394418 -2.905270 0.889598
A -0.689274 0.574728 -1.159939
A -2.132088 -0.136218 -2.307781
A -0.961069 -0.173414 1.396601
A 0.196926 0.511746 -0.763495
A -1.699362 1.146979 -2.972180
A -1.432698 -1.323498 -2.194930
A -1.204538 -1.919052 1.101497
A -3.091320 -0.678017 1.166460
A -2.084701 -0.324230 1.470853
A -1.592683 3.138029 -1.531803
A -3.100030 0.937341 2.308118
A -0.379198 -0.592443 2.171252
A 0.669140 1.575018 2.436018
A -0.415061 0.947843 -0.084526
A 2.256540 0.467134 -0.109791
A 2.530170 -0.254543 -0.811676
A 3.137293 -0.963844 2.158140
A 2.825921 2.388751 -0.867520
A 0.918273 1.112831 -1.012018
A -2.378503 2.347161 -0.674486
A -0.400272 2.463708 -1.287959
A 1.819287 -1.101078 -2.683460
A -2.124132 -2.153429 0.762873
A 2.408460 0.238027 -1.609217
A -1.970859 2.312423 2.209521
A -2.912800 1.568751 -0.391681
A -0.503676 -2.073887 -0.477852
A 1.917820 -0.432255 0.740795
A -1.323987 -1.467189 2.165029
A -1.615332 2.578198 0.461825
A 0.866841 -1.871151 0.574988
A -2.612540 2.810542 1.542483
A -3.036890 1.516532 -1.447512
A -2.541380 -2.418080 -3.111280
A 2.455651 1.371393 -0.841411
A -0.313321 -2.681290 -3.119060
A 2.804021 -0.519626 0.251114
A 2.191330 -0.810368 2.730131
A -1.337892 0.475331 -0.151984
A 0.634147 0.978569 0.131938
A -1.398112 -2.657360 0.343272
A -1.363450 -2.215680 -1.614030
A 1.550547 0.946884 -1.790613
A -0.122325 0.854669 2.726867
A 0.273319 2.741599 -0.538383
A 0.716343 1.520418 -2.009350
A 2.556203 1.894968 2.082942
A 0.558549 0.025246 2.742119
A 2.314232 2.184491 0.086920
A -1.835422 1.901972 1.254922
A -0.797853 -2.254451 2.555060
A 1.902950 1.619072 1.313612
A -0.388259 -1.142960 -0.861653
A -2.495767 2.728588 -1.731320
A -2.006309 2.054712 -2.914260
A 0.010121 -0.343031 1.000862
A 1.719643 1.852058 -2.401590
A 2.366807 -0.126732 -2.572670
A -0.380112 -1.129981 -2.138761
A 1.182518 1.930361 0.487300
A 0.275757 1.249728 -2.796820
A -3.125230 -2.025999 2.015738
A 1.706220 1.813198 2.655860
A 2.043492 0.962650 2.062223
A -2.270268 -1.318380 1.614741
A 0.254486 1.850858 -0.162042
A 1.260453 -1.289667 -1.855467
A -1.815313 -2.196949 -0.707409
A -2.603490 1.650693 1.618253
A -0.450256 -3.141110 2.288961
A -2.421903 -1.880637 -2.273843
A 3.134569 -2.476382 0.983712
A -0.206343 -0.925937 3.153040
A 0.225779 -2.566030 -2.300352
A 2.744761 3.042328 -2.363670
A -0.717314 1.924469 -0.299733
A 0.880404 0.539786 -2.550520
A 0.576340 2.303787 -1.529981
A 0.152594 -3.010270 -1.431911
A 0.729506 -3.020950 -3.042930
A 0.855850 1.088398 1.105027
A -0.244288 2.771962 3.082839
A 1.375311 2.975213 0.224516
A -1.197750 2.332399 2.792941
A -1.024140 -0.411759 -2.493551
A 0.679223 -2.099597 -1.347449
A 1.101389 -3.027280 -0.911453
A 2.991151 2.156597 1.206259
A 1.772097 0.005289 1.851601
A 1.309910 -2.408232 -0.162029
A 1.757868 0.508285 -0.935861
A 2.327643 -0.800558 1.663729
A 2.511578 2.636087 2.981448
A -0.870683 0.574848 -2.699690
A -1.596931 -2.218652 -3.169910
A -3.068340 0.202889 -2.112747
A 2.403057 0.269439 2.797602
A 1.963398 -2.029453 1.417129
A 0.713314 2.137923 -3.015770
A -1.120558 2.530100 1.804677
A -0.003467 1.666243 0.845481
A 1.665570 -2.622120 2.144787
A -1.450077 -0.525601 2.429852
A 2.894192 1.251252 -2.313362
A -2.093869 1.313351 2.415997
A 1.674167 2.779252 -3.037220
A -1.278949 1.324311 -0.909656
A -1.373628 2.378528 -1.004558
A 2.791671 0.138644 1.854090
A 1.044579 0.243158 -0.381249
A -0.616641 -2.998030 -2.139809
A -1.455881 -3.049350 2.500479
A 2.734373 3.130429 1.747658
A 0.254816 -1.205859 1.068942
A 1.009110 2.793513 -2.240640
A 1.456903 -0.120077 3.073962
A 0.903878 -2.371830 1.538222
A -0.744478 3.012091 0.063001
A -2.796240 2.904428 -2.872050
A -0.894659 0.214451 2.716010
A -0.063947 -2.312181 1.600429
A 0.515073 -2.815370 2.386700
A 1.564357 -0.370677 -1.251017
A 1.930971 0.727385 -2.583700
A 2.242107 -2.135478 -0.267071
A 0.996741 1.954712 1.630342
A 1.936628 -2.593120 0.610622
A 2.837109 3.161390 -1.428450
A -1.760331 -3.133730 -0.465343
A -1.291159 3.038900 -2.815620
A -2.074618 -3.057310 -2.363251
A -1.986002 -0.654422 -1.412843
A 2.007312 -2.674850 3.151548
A 1.603807 1.416672 -0.231792
A 0.791389 0.140320 -1.388219
A -2.585970 -1.305992 0.401523
A -1.914519 1.720627 0.004807
A 1.684263 0.821206 0.747348
A 1.027372 2.566140 2.505952
A -1.915058 -2.325579 1.699807
A -2.260362 0.772340 -0.271490
A 0.961602 -0.911117 0.357533
A -2.256483 0.587236 -1.447372
A 1.349938 0.866670 2.946741
A -2.548790 0.485135 1.314012
A 2.605552 0.332103 0.900151
A 1.970148 -2.190599 -2.254273
A 3.107050 0.703091 -0.951570
A 2.026449 2.615140 1.284753
A -0.484106 -1.975729 0.488913
A -1.206011 -1.424831 -1.148789
A 0.347253 -0.093796 0.146358
A -2.855400 1.600023 3.085277
A 0.414381 -1.395737 2.081081
A 0.849322 -0.070341 1.314729
A 2.870813 -1.629371 -1.709662
A -1.324488 -1.623193 0.010109
A -0.745138 -0.057661 0.416000
A -0.701612 1.367297 -1.836787
A 1.561462 -1.603718 2.317902
A -1.588073 3.116117 1.301573
A 2.880750 -1.357919 -0.332973
A 0.379522 -0.510762 -2.450749
A 1.165831 2.322500 -0.497193
A -2.457213 -2.822710 2.413718
A -0.169172 1.948940 2.803482
A -2.975360 -0.756218 -2.251968
A -2.234208 -0.130300 -0.651196
A 0.951564 0.622375 2.065150
A 2.931731 -2.790760 2.684833
A -0.650821 -2.930810 0.957634
A 2.778928 3.082407 0.443247
A -2.304327 -3.106330 0.351806
A -2.959180 -0.342637 -1.314983
A -0.117810 1.430870 -0.979731
A -0.779267 -1.053691 0.790709
A -2.269772 1.180327 -2.221369
A 0.212191 -2.735990 -0.090253
A 0.576626 -0.676359 -0.795135
A -1.679793 0.618667 1.911490
A -0.494615 -1.454973 1.783520
A -0.360937 -0.199892 -0.542954
A -2.750130 0.601510 -3.090350
A 0.471731 2.560679 0.452663
A -2.331078 -1.602722 2.539961
A 0.074779 0.763755 -1.899578
A -0.904177 -2.133237 -2.498828
A -0.061966 0.143520 -2.837170
A 1.708969 -0.397929 -0.272138
A -1.174498 2.144647 -2.224341
A -0.005562 -0.118915 -1.647181
A -2.414931 -0.174360 0.595002
A 2.918117 1.058948 1.477577
A 0.163921 -1.903940 2.975270
A 3.009310 -2.264667 -0.935169
A -1.416380 0.672899 -1.851759
A 2.510340 2.182681 -1.863462
A -2.115922 -1.196461 -0.668956
A -2.729920 2.319363 0.451984
A 0.381186 -1.217942 -1.516513
A 0.125347 2.509552 1.871818
A -1.136540 1.308672 2.462051
A 1.060891 -0.562143 2.124259
A -0.274728 -2.110328 -1.533682
A -0.928483 1.607268 0.596678
A -2.469499 0.043031 2.367372
A -2.182040 -0.927670 -3.018280
A 1.618818 -1.286899 -0.823778
A 0.472728 -1.499598 -2.502663
A 0.806990 -1.605388 -0.432160
A -2.922070 2.362591 2.460451
A 2.501641 -0.794081 -1.688289
A 1.117390 -2.551990 -2.047327
A 1.259653 -1.122819 1.283457
A -3.043550 0.214458 -0.075205
A -3.098170 -0.448523 3.137109
A 2.779823 -1.548172 0.817416
A 1.904982 2.852659 2.226481
A -2.573180 -1.440261 -1.381622
A 1.037112 2.970127 1.450147
A -2.822310 -3.130980 -0.608082
A 2.082961 -3.059470 -0.630985
